PROCAR lm decomposed
# of k-points:    4         # of bands:  12         # of ions:   2

 k-point    1 :    0.12500000 0.12500000 0.12500000     weight = 0.12500000

band   1 # energy   -1.84538984 # occ.  1.00000000
 
ion      s     py     pz     px    dxy    dyz    dz2    dxz    dx2    tot
  1  0.317  0.010  0.010  0.010  0.001  0.001  0.000  0.001  0.000  0.351
  2  0.317  0.010  0.010  0.010  0.001  0.001  0.000  0.001  0.000  0.351
tot  0.634  0.020  0.020  0.020  0.002  0.002  0.000  0.002  0.000  0.702
 
band   2 # energy    1.04064108 # occ.  1.00000000
 
ion      s     py     pz     px    dxy    dyz    dz2    dxz    dx2    tot
  1  0.000  0.003  0.000  0.006  0.000  0.002  0.027  0.001  0.408  0.447
  2  0.000  0.003  0.000  0.006  0.000  0.002  0.027  0.001  0.408  0.447
tot  0.000  0.007  0.001  0.012  0.000  0.004  0.054  0.002  0.816  0.895
 
band   3 # energy    1.04064108 # occ.  1.00000000
 
ion      s     py     pz     px    dxy    dyz    dz2    dxz    dx2    tot
  1  0.000  0.003  0.006  0.001  0.002  0.000  0.408  0.001  0.027  0.447
  2  0.000  0.003  0.006  0.001  0.002  0.000  0.408  0.001  0.027  0.447
tot  0.000  0.006  0.012  0.001  0.004  0.000  0.816  0.002  0.054  0.895
 
band   4 # energy    2.89156423 # occ.  1.00000000
 
ion      s     py     pz     px    dxy    dyz    dz2    dxz    dx2    tot
  1  0.000  0.000  0.000  0.001  0.083  0.277  0.002  0.132  0.006  0.502
  2  0.000  0.000  0.000  0.001  0.083  0.277  0.002  0.132  0.006  0.502
tot  0.000  0.001  0.001  0.002  0.167  0.555  0.004  0.263  0.013  1.004
 
band   5 # energy    2.89156423 # occ.  1.00000000
 
ion      s     py     pz     px    dxy    dyz    dz2    dxz    dx2    tot
  1  0.000  0.001  0.001  0.000  0.245  0.051  0.006  0.197  0.002  0.502
  2  0.000  0.001  0.001  0.000  0.245  0.051  0.006  0.197  0.002  0.502
tot  0.000  0.001  0.002  0.000  0.490  0.102  0.013  0.393  0.004  1.004
 
band   6 # energy    3.60438409 # occ.  1.00000000
 
ion      s     py     pz     px    dxy    dyz    dz2    dxz    dx2    tot
  1  0.001  0.001  0.001  0.001  0.165  0.165  0.000  0.165  0.000  0.500
  2  0.001  0.001  0.001  0.001  0.165  0.165  0.000  0.165  0.000  0.500
tot  0.002  0.003  0.003  0.003  0.330  0.330  0.000  0.330  0.000  0.999
 
band   7 # energy    4.02672485 # occ.  1.00000000
 
ion      s     py     pz     px    dxy    dyz    dz2    dxz    dx2    tot
  1  0.000  0.000  0.000  0.000  0.000  0.004  0.011  0.005  0.471  0.491
  2  0.000  0.000  0.000  0.000  0.000  0.004  0.011  0.005  0.471  0.491
tot  0.000  0.000  0.000  0.000  0.000  0.007  0.023  0.010  0.941  0.982
 
band   8 # energy    4.02672485 # occ.  1.00000000
 
ion      s     py     pz     px    dxy    dyz    dz2    dxz    dx2    tot
  1  0.000  0.000  0.000  0.000  0.006  0.002  0.471  0.001  0.011  0.491
  2  0.000  0.000  0.000  0.000  0.006  0.002  0.471  0.001  0.011  0.491
tot  0.000  0.000  0.000  0.000  0.012  0.005  0.941  0.002  0.023  0.982
 
band   9 # energy    4.08805436 # occ.  1.00000000
 
ion      s     py     pz     px    dxy    dyz    dz2    dxz    dx2    tot
  1  0.005  0.004  0.004  0.004  0.157  0.157  0.000  0.157  0.000  0.486
  2  0.005  0.004  0.004  0.004  0.157  0.157  0.000  0.157  0.000  0.486
tot  0.010  0.007  0.007  0.007  0.313  0.313  0.000  0.313  0.000  0.971
 
band  10 # energy    5.04359120 # occ.  0.08590426
 
ion      s     py     pz     px    dxy    dyz    dz2    dxz    dx2    tot
  1  0.000  0.002  0.000  0.003  0.020  0.293  0.000  0.172  0.005  0.496
  2  0.000  0.002  0.000  0.003  0.020  0.293  0.000  0.172  0.005  0.496
tot  0.000  0.004  0.000  0.007  0.040  0.585  0.001  0.344  0.010  0.991
 
band  11 # energy    5.04359120 # occ.  0.08590424
 
ion      s     py     pz     px    dxy    dyz    dz2    dxz    dx2    tot
  1  0.000  0.002  0.003  0.000  0.303  0.031  0.005  0.151  0.000  0.496
  2  0.000  0.002  0.003  0.000  0.303  0.031  0.005  0.151  0.000  0.496
tot  0.000  0.003  0.007  0.001  0.606  0.061  0.010  0.302  0.001  0.991
 
band  12 # energy   13.78842642 # occ.  0.00000000
 
ion      s     py     pz     px    dxy    dyz    dz2    dxz    dx2    tot
  1  0.000  0.107  0.012  0.182  0.001  0.011  0.005  0.006  0.070  0.394
  2  0.000  0.107  0.012  0.182  0.001  0.011  0.005  0.006  0.070  0.394
tot  0.000  0.214  0.025  0.364  0.002  0.022  0.009  0.013  0.140  0.788
 

 k-point    2 :    0.37500000 0.12500000 0.12500000     weight = 0.37500000

band   1 # energy    0.11920886 # occ.  1.00000000
 
ion      s     py     pz     px    dxy    dyz    dz2    dxz    dx2    tot
  1  0.215  0.006  0.006  0.065  0.020  0.000  0.009  0.020  0.027  0.368
  2  0.215  0.006  0.006  0.065  0.020  0.000  0.009  0.020  0.027  0.368
tot  0.429  0.012  0.012  0.130  0.040  0.000  0.018  0.040  0.054  0.736
 
band   2 # energy    1.48660505 # occ.  1.00000000
 
ion      s     py     pz     px    dxy    dyz    dz2    dxz    dx2    tot
  1  0.037  0.001  0.001  0.054  0.024  0.000  0.072  0.024  0.217  0.431
  2  0.037  0.001  0.001  0.054  0.024  0.000  0.072  0.024  0.217  0.431
tot  0.073  0.003  0.003  0.108  0.048  0.001  0.144  0.048  0.433  0.862
 
band   3 # energy    1.74802443 # occ.  1.00000000
 
ion      s     py     pz     px    dxy    dyz    dz2    dxz    dx2    tot
  1  0.000  0.005  0.005  0.000  0.019  0.000  0.304  0.019  0.101  0.455
  2  0.000  0.005  0.005  0.000  0.019  0.000  0.304  0.019  0.101  0.455
tot  0.000  0.010  0.010  0.000  0.039  0.000  0.609  0.039  0.203  0.910
 
band   4 # energy    2.62417840 # occ.  1.00000000
 
ion      s     py     pz     px    dxy    dyz    dz2    dxz    dx2    tot
  1  0.000  0.005  0.005  0.000  0.136  0.000  0.149  0.136  0.050  0.482
  2  0.000  0.005  0.005  0.000  0.136  0.000  0.149  0.136  0.050  0.482
tot  0.000  0.011  0.011  0.000  0.272  0.000  0.298  0.272  0.099  0.963
 
band   5 # energy    2.80536597 # occ.  1.00000000
 
ion      s     py     pz     px    dxy    dyz    dz2    dxz    dx2    tot
  1  0.004  0.002  0.002  0.009  0.111  0.252  0.000  0.111  0.001  0.492
  2  0.004  0.002  0.002  0.009  0.111  0.252  0.000  0.111  0.001  0.492
tot  0.008  0.005  0.005  0.019  0.221  0.503  0.000  0.221  0.001  0.985
 
band   6 # energy    3.12747687 # occ.  1.00000000
 
ion      s     py     pz     px    dxy    dyz    dz2    dxz    dx2    tot
  1  0.004  0.005  0.005  0.001  0.132  0.165  0.011  0.132  0.032  0.486
  2  0.004  0.005  0.005  0.001  0.132  0.165  0.011  0.132  0.032  0.486
tot  0.007  0.010  0.010  0.002  0.263  0.329  0.022  0.263  0.065  0.972
 
band   7 # energy    3.61796759 # occ.  1.00000000
 
ion      s     py     pz     px    dxy    dyz    dz2    dxz    dx2    tot
  1  0.000  0.001  0.001  0.000  0.105  0.000  0.208  0.105  0.069  0.490
  2  0.000  0.001  0.001  0.000  0.105  0.000  0.208  0.105  0.069  0.490
tot  0.000  0.003  0.003  0.000  0.209  0.000  0.417  0.209  0.139  0.980
 
band   8 # energy    3.92863985 # occ.  1.00000000
 
ion      s     py     pz     px    dxy    dyz    dz2    dxz    dx2    tot
  1  0.000  0.007  0.007  0.000  0.212  0.000  0.036  0.212  0.012  0.487
  2  0.000  0.007  0.007  0.000  0.212  0.000  0.036  0.212  0.012  0.487
tot  0.000  0.015  0.015  0.000  0.425  0.000  0.072  0.425  0.024  0.975
 
band   9 # energy    4.44726616 # occ.  1.00000000
 
ion      s     py     pz     px    dxy    dyz    dz2    dxz    dx2    tot
  1  0.002  0.001  0.001  0.000  0.067  0.136  0.057  0.067  0.172  0.503
  2  0.002  0.001  0.001  0.000  0.067  0.136  0.057  0.067  0.172  0.503
tot  0.004  0.002  0.002  0.000  0.134  0.273  0.114  0.134  0.343  1.006
 
band  10 # energy    4.67810473 # occ.  1.00006358
 
ion      s     py     pz     px    dxy    dyz    dz2    dxz    dx2    tot
  1  0.022  0.005  0.005  0.013  0.047  0.110  0.059  0.047  0.178  0.486
  2  0.022  0.005  0.005  0.013  0.047  0.110  0.059  0.047  0.178  0.486
tot  0.045  0.009  0.009  0.027  0.093  0.221  0.119  0.093  0.356  0.973
 
band  11 # energy    4.88362576 # occ.  1.02639112
 
ion      s     py     pz     px    dxy    dyz    dz2    dxz    dx2    tot
  1  0.005  0.000  0.000  0.004  0.064  0.320  0.010  0.064  0.029  0.496
  2  0.005  0.000  0.000  0.004  0.064  0.320  0.010  0.064  0.029  0.496
tot  0.010  0.000  0.000  0.008  0.128  0.639  0.019  0.128  0.058  0.992
 
band  12 # energy    7.89721164 # occ.  0.00000000
 
ion      s     py     pz     px    dxy    dyz    dz2    dxz    dx2    tot
  1  0.088  0.010  0.010  0.125  0.018  0.010  0.035  0.018  0.105  0.419
  2  0.088  0.010  0.010  0.125  0.018  0.010  0.035  0.018  0.105  0.419
tot  0.175  0.020  0.020  0.250  0.037  0.020  0.070  0.037  0.210  0.838
 

 k-point    3 :    0.37500000 0.37500000 0.12500000     weight = 0.37500000

band   1 # energy    0.75501939 # occ.  1.00000000
 
ion      s     py     pz     px    dxy    dyz    dz2    dxz    dx2    tot
  1  0.097  0.011  0.008  0.011  0.207  0.001  0.092  0.001  0.000  0.427
  2  0.097  0.011  0.008  0.011  0.207  0.001  0.092  0.001  0.000  0.427
tot  0.193  0.023  0.016  0.023  0.414  0.001  0.183  0.001  0.000  0.854
 
band   2 # energy    1.08690310 # occ.  1.00000000
 
ion      s     py     pz     px    dxy    dyz    dz2    dxz    dx2    tot
  1  0.040  0.004  0.006  0.004  0.212  0.002  0.178  0.002  0.000  0.448
  2  0.040  0.004  0.006  0.004  0.212  0.002  0.178  0.002  0.000  0.448
tot  0.079  0.008  0.012  0.008  0.424  0.005  0.356  0.005  0.000  0.897
 
band   3 # energy    2.15648004 # occ.  1.00000000
 
ion      s     py     pz     px    dxy    dyz    dz2    dxz    dx2    tot
  1  0.000  0.002  0.000  0.002  0.000  0.243  0.000  0.243  0.005  0.494
  2  0.000  0.002  0.000  0.002  0.000  0.243  0.000  0.243  0.005  0.494
tot  0.000  0.004  0.000  0.004  0.000  0.485  0.000  0.485  0.010  0.988
 
band   4 # energy    2.34641968 # occ.  1.00000000
 
ion      s     py     pz     px    dxy    dyz    dz2    dxz    dx2    tot
  1  0.001  0.001  0.005  0.001  0.004  0.227  0.025  0.227  0.000  0.491
  2  0.001  0.001  0.005  0.001  0.004  0.227  0.025  0.227  0.000  0.491
tot  0.003  0.003  0.010  0.003  0.008  0.453  0.050  0.453  0.000  0.983
 
band   5 # energy    2.99224802 # occ.  1.00000000
 
ion      s     py     pz     px    dxy    dyz    dz2    dxz    dx2    tot
  1  0.000  0.032  0.000  0.032  0.000  0.020  0.000  0.020  0.348  0.453
  2  0.000  0.032  0.000  0.032  0.000  0.020  0.000  0.020  0.348  0.453
tot  0.000  0.065  0.000  0.065  0.000  0.040  0.000  0.040  0.697  0.905
 
band   6 # energy    3.44847418 # occ.  1.00000000
 
ion      s     py     pz     px    dxy    dyz    dz2    dxz    dx2    tot
  1  0.040  0.054  0.000  0.054  0.041  0.087  0.060  0.087  0.000  0.425
  2  0.040  0.054  0.000  0.054  0.041  0.087  0.060  0.087  0.000  0.425
tot  0.081  0.109  0.000  0.109  0.082  0.175  0.120  0.175  0.000  0.851
 
band   7 # energy    4.08726885 # occ.  1.00000000
 
ion      s     py     pz     px    dxy    dyz    dz2    dxz    dx2    tot
  1  0.007  0.001  0.001  0.001  0.197  0.014  0.262  0.014  0.000  0.496
  2  0.007  0.001  0.001  0.001  0.197  0.014  0.262  0.014  0.000  0.496
tot  0.014  0.002  0.002  0.002  0.394  0.028  0.523  0.028  0.000  0.992
 
band   8 # energy    4.12858057 # occ.  1.00000000
 
ion      s     py     pz     px    dxy    dyz    dz2    dxz    dx2    tot
  1  0.002  0.001  0.001  0.001  0.144  0.011  0.329  0.011  0.000  0.499
  2  0.002  0.001  0.001  0.001  0.144  0.011  0.329  0.011  0.000  0.499
tot  0.004  0.002  0.001  0.002  0.289  0.021  0.658  0.021  0.000  0.997
 
band   9 # energy    4.27319117 # occ.  1.00000000
 
ion      s     py     pz     px    dxy    dyz    dz2    dxz    dx2    tot
  1  0.000  0.000  0.000  0.000  0.000  0.003  0.000  0.003  0.496  0.501
  2  0.000  0.000  0.000  0.000  0.000  0.003  0.000  0.003  0.496  0.501
tot  0.000  0.000  0.000  0.000  0.000  0.006  0.000  0.006  0.991  1.003
 
band  10 # energy    5.01609991 # occ.  0.24960913
 
ion      s     py     pz     px    dxy    dyz    dz2    dxz    dx2    tot
  1  0.000  0.010  0.000  0.010  0.000  0.193  0.000  0.193  0.088  0.494
  2  0.000  0.010  0.000  0.010  0.000  0.193  0.000  0.193  0.088  0.494
tot  0.000  0.019  0.000  0.019  0.000  0.386  0.000  0.386  0.177  0.987
 
band  11 # energy    5.90902848 # occ.  0.00000000
 
ion      s     py     pz     px    dxy    dyz    dz2    dxz    dx2    tot
  1  0.027  0.031  0.005  0.031  0.064  0.150  0.001  0.150  0.000  0.458
  2  0.027  0.031  0.005  0.031  0.064  0.150  0.001  0.150  0.000  0.458
tot  0.054  0.062  0.010  0.062  0.127  0.299  0.002  0.299  0.000  0.916
 
band  12 # energy    8.49483412 # occ.  0.00000000
 
ion      s     py     pz     px    dxy    dyz    dz2    dxz    dx2    tot
  1  0.000  0.121  0.000  0.121  0.000  0.040  0.000  0.040  0.073  0.396
  2  0.000  0.121  0.000  0.121  0.000  0.040  0.000  0.040  0.073  0.396
tot  0.000  0.243  0.000  0.243  0.000  0.080  0.000  0.080  0.147  0.792
 

 k-point    4 :    0.37500000 0.37500000 0.37500000     weight = 0.12500000

band   1 # energy    1.70509122 # occ.  1.00000000
 
ion      s     py     pz     px    dxy    dyz    dz2    dxz    dx2    tot
  1  0.018  0.003  0.003  0.003  0.150  0.150  0.000  0.150  0.000  0.477
  2  0.018  0.003  0.003  0.003  0.150  0.150  0.000  0.150  0.000  0.477
tot  0.035  0.006  0.006  0.006  0.300  0.300  0.000  0.300  0.000  0.953
 
band   2 # energy    2.08019243 # occ.  1.00000000
 
ion      s     py     pz     px    dxy    dyz    dz2    dxz    dx2    tot
  1  0.000  0.013  0.003  0.012  0.050  0.173  0.006  0.197  0.025  0.480
  2  0.000  0.013  0.003  0.012  0.050  0.173  0.006  0.197  0.025  0.480
tot  0.000  0.027  0.007  0.024  0.100  0.346  0.011  0.394  0.051  0.959
 
band   3 # energy    2.08019243 # occ.  1.00000000
 
ion      s     py     pz     px    dxy    dyz    dz2    dxz    dx2    tot
  1  0.000  0.006  0.016  0.007  0.230  0.107  0.025  0.083  0.006  0.480
  2  0.000  0.006  0.016  0.007  0.230  0.107  0.025  0.083  0.006  0.480
tot  0.000  0.011  0.031  0.015  0.460  0.214  0.051  0.167  0.011  0.959
 
band   4 # energy    2.19408336 # occ.  1.00000000
 
ion      s     py     pz     px    dxy    dyz    dz2    dxz    dx2    tot
  1  0.056  0.031  0.031  0.031  0.093  0.093  0.000  0.093  0.000  0.429
  2  0.056  0.031  0.031  0.031  0.093  0.093  0.000  0.093  0.000  0.429
tot  0.112  0.063  0.063  0.063  0.186  0.186  0.000  0.186  0.000  0.858
 
band   5 # energy    2.33280176 # occ.  1.00000000
 
ion      s     py     pz     px    dxy    dyz    dz2    dxz    dx2    tot
  1  0.000  0.030  0.030  0.000  0.139  0.001  0.085  0.138  0.029  0.454
  2  0.000  0.030  0.030  0.000  0.139  0.001  0.085  0.138  0.029  0.454
tot  0.000  0.061  0.061  0.001  0.277  0.003  0.170  0.277  0.058  0.907
 
band   6 # energy    2.33280179 # occ.  1.00000000
 
ion      s     py     pz     px    dxy    dyz    dz2    dxz    dx2    tot
  1  0.000  0.010  0.010  0.040  0.047  0.184  0.029  0.047  0.085  0.454
  2  0.000  0.010  0.010  0.040  0.047  0.184  0.029  0.047  0.085  0.454
tot  0.000  0.021  0.021  0.081  0.094  0.368  0.058  0.094  0.170  0.908
 
band   7 # energy    4.29458801 # occ.  1.00000000
 
ion      s     py     pz     px    dxy    dyz    dz2    dxz    dx2    tot
  1  0.000  0.000  0.000  0.000  0.000  0.017  0.000  0.018  0.468  0.503
  2  0.000  0.000  0.000  0.000  0.000  0.017  0.000  0.018  0.468  0.503
tot  0.000  0.000  0.000  0.000  0.000  0.034  0.000  0.035  0.936  1.006
 
band   8 # energy    4.29458801 # occ.  1.00000000
 
ion      s     py     pz     px    dxy    dyz    dz2    dxz    dx2    tot
  1  0.000  0.000  0.000  0.000  0.023  0.006  0.468  0.005  0.000  0.503
  2  0.000  0.000  0.000  0.000  0.023  0.006  0.468  0.005  0.000  0.503
tot  0.000  0.000  0.001  0.000  0.046  0.012  0.936  0.011  0.000  1.006
 
band   9 # energy    4.34909274 # occ.  1.00000000
 
ion      s     py     pz     px    dxy    dyz    dz2    dxz    dx2    tot
  1  0.000  0.002  0.002  0.000  0.062  0.001  0.277  0.062  0.094  0.502
  2  0.000  0.002  0.002  0.000  0.062  0.001  0.277  0.062  0.094  0.502
tot  0.000  0.005  0.005  0.000  0.125  0.001  0.555  0.125  0.188  1.004
 
band  10 # energy    4.34909274 # occ.  1.00000000
 
ion      s     py     pz     px    dxy    dyz    dz2    dxz    dx2    tot
  1  0.000  0.001  0.001  0.003  0.021  0.083  0.094  0.021  0.277  0.502
  2  0.000  0.001  0.001  0.003  0.021  0.083  0.094  0.021  0.277  0.502
tot  0.000  0.002  0.002  0.006  0.042  0.166  0.188  0.043  0.555  1.004
 
band  11 # energy    8.51639034 # occ.  0.00000000
 
ion      s     py     pz     px    dxy    dyz    dz2    dxz    dx2    tot
  1  0.059  0.037  0.037  0.037  0.083  0.083  0.000  0.083  0.000  0.419
  2  0.059  0.037  0.037  0.037  0.083  0.083  0.000  0.083  0.000  0.419
tot  0.117  0.074  0.074  0.074  0.167  0.167  0.000  0.167  0.000  0.839
 
band  12 # energy   12.07473587 # occ.  0.00000000
 
ion      s     py     pz     px    dxy    dyz    dz2    dxz    dx2    tot
  1  0.000  0.107  0.107  0.001  0.074  0.001  0.019  0.073  0.007  0.389
  2  0.000  0.107  0.107  0.001  0.074  0.001  0.019  0.073  0.007  0.389
tot  0.000  0.214  0.215  0.002  0.147  0.002  0.039  0.147  0.013  0.779
 
# of k-points:    4         # of bands:  12         # of ions:   2

 k-point    1 :    0.12500000 0.12500000 0.12500000     weight = 0.12500000

band   1 # energy   -1.73941802 # occ.  1.00000000
 
ion      s     py     pz     px    dxy    dyz    dz2    dxz    dx2    tot
  1  0.316  0.010  0.010  0.010  0.001  0.001  0.000  0.001  0.000  0.349
  2  0.316  0.010  0.010  0.010  0.001  0.001  0.000  0.001  0.000  0.349
tot  0.633  0.020  0.020  0.020  0.002  0.002  0.000  0.002  0.000  0.699
 
band   2 # energy    2.79215118 # occ.  1.00000000
 
ion      s     py     pz     px    dxy    dyz    dz2    dxz    dx2    tot
  1  0.000  0.011  0.001  0.004  0.000  0.001  0.053  0.003  0.358  0.431
  2  0.000  0.011  0.001  0.004  0.000  0.001  0.053  0.003  0.358  0.431
tot  0.000  0.021  0.003  0.009  0.001  0.002  0.106  0.006  0.715  0.862
 
band   3 # energy    2.79215121 # occ.  1.00000000
 
ion      s     py     pz     px    dxy    dyz    dz2    dxz    dx2    tot
  1  0.000  0.000  0.009  0.007  0.003  0.002  0.358  0.000  0.053  0.431
  2  0.000  0.000  0.009  0.007  0.003  0.002  0.358  0.000  0.053  0.431
tot  0.000  0.001  0.019  0.013  0.005  0.004  0.715  0.000  0.106  0.862
 
band   4 # energy    4.53229853 # occ.  1.00000000
 
ion      s     py     pz     px    dxy    dyz    dz2    dxz    dx2    tot
  1  0.000  0.000  0.001  0.001  0.241  0.251  0.004  0.004  0.001  0.503
  2  0.000  0.000  0.001  0.001  0.241  0.251  0.004  0.004  0.001  0.503
tot  0.000  0.000  0.002  0.002  0.481  0.503  0.007  0.008  0.003  1.006
 
band   5 # energy    4.53229853 # occ.  1.00000000
 
ion      s     py     pz     px    dxy    dyz    dz2    dxz    dx2    tot
  1  0.000  0.001  0.000  0.000  0.090  0.079  0.001  0.327  0.004  0.503
  2  0.000  0.001  0.000  0.000  0.090  0.079  0.001  0.327  0.004  0.503
tot  0.000  0.002  0.001  0.001  0.180  0.159  0.003  0.654  0.007  1.006
 
band   6 # energy    5.32831735 # occ.  1.00001697
 
ion      s     py     pz     px    dxy    dyz    dz2    dxz    dx2    tot
  1  0.000  0.002  0.002  0.002  0.165  0.165  0.000  0.165  0.000  0.501
  2  0.000  0.002  0.002  0.002  0.165  0.165  0.000  0.165  0.000  0.501
tot  0.001  0.003  0.003  0.003  0.330  0.330  0.000  0.330  0.000  1.002
 
band   7 # energy    5.78310251 # occ. -0.00000105
 
ion      s     py     pz     px    dxy    dyz    dz2    dxz    dx2    tot
  1  0.007  0.005  0.005  0.005  0.153  0.153  0.000  0.153  0.000  0.482
  2  0.007  0.005  0.005  0.005  0.153  0.153  0.000  0.153  0.000  0.482
tot  0.015  0.011  0.011  0.011  0.305  0.305  0.000  0.305  0.000  0.963
 
band   8 # energy    6.58850023 # occ.  0.00000000
 
ion      s     py     pz     px    dxy    dyz    dz2    dxz    dx2    tot
  1  0.000  0.000  0.000  0.000  0.003  0.003  0.352  0.000  0.132  0.489
  2  0.000  0.000  0.000  0.000  0.003  0.003  0.352  0.000  0.132  0.489
tot  0.000  0.000  0.000  0.000  0.005  0.006  0.704  0.000  0.264  0.978
 
band   9 # energy    6.58850023 # occ.  0.00000000
 
ion      s     py     pz     px    dxy    dyz    dz2    dxz    dx2    tot
  1  0.000  0.000  0.000  0.000  0.001  0.001  0.132  0.004  0.352  0.489
  2  0.000  0.000  0.000  0.000  0.001  0.001  0.132  0.004  0.352  0.489
tot  0.000  0.000  0.000  0.000  0.002  0.002  0.264  0.007  0.704  0.978
 
band  10 # energy    6.93262362 # occ.  0.00000000
 
ion      s     py     pz     px    dxy    dyz    dz2    dxz    dx2    tot
  1  0.000  0.005  0.001  0.002  0.041  0.127  0.001  0.310  0.008  0.495
  2  0.000  0.005  0.001  0.002  0.041  0.127  0.001  0.310  0.008  0.495
tot  0.000  0.010  0.001  0.004  0.082  0.254  0.002  0.620  0.016  0.990
 
band  11 # energy    6.93262363 # occ.  0.00000000
 
ion      s     py     pz     px    dxy    dyz    dz2    dxz    dx2    tot
  1  0.000  0.000  0.005  0.003  0.278  0.192  0.008  0.008  0.001  0.495
  2  0.000  0.000  0.005  0.003  0.278  0.192  0.008  0.008  0.001  0.495
tot  0.000  0.000  0.009  0.006  0.555  0.384  0.016  0.017  0.002  0.990
 
band  12 # energy   14.34362803 # occ.  0.00000000
 
ion      s     py     pz     px    dxy    dyz    dz2    dxz    dx2    tot
  1  0.000  0.191  0.025  0.078  0.002  0.006  0.010  0.016  0.069  0.398
  2  0.000  0.191  0.025  0.078  0.002  0.006  0.010  0.016  0.069  0.398
tot  0.000  0.382  0.050  0.156  0.004  0.013  0.020  0.031  0.139  0.796
 

 k-point    2 :    0.37500000 0.12500000 0.12500000     weight = 0.37500000

band   1 # energy    0.37814311 # occ.  1.00000000
 
ion      s     py     pz     px    dxy    dyz    dz2    dxz    dx2    tot
  1  0.228  0.007  0.007  0.073  0.012  0.000  0.005  0.012  0.015  0.357
  2  0.228  0.007  0.007  0.073  0.012  0.000  0.005  0.012  0.015  0.357
tot  0.455  0.014  0.014  0.145  0.024  0.000  0.010  0.024  0.029  0.715
 
band   2 # energy    2.69028008 # occ.  1.00000000
 
ion      s     py     pz     px    dxy    dyz    dz2    dxz    dx2    tot
  1  0.058  0.002  0.002  0.084  0.027  0.000  0.051  0.027  0.152  0.403
  2  0.058  0.002  0.002  0.084  0.027  0.000  0.051  0.027  0.152  0.403
tot  0.117  0.004  0.004  0.169  0.054  0.000  0.101  0.054  0.303  0.806
 
band   3 # energy    3.58988053 # occ.  1.00000000
 
ion      s     py     pz     px    dxy    dyz    dz2    dxz    dx2    tot
  1  0.000  0.009  0.009  0.000  0.036  0.000  0.264  0.036  0.088  0.442
  2  0.000  0.009  0.009  0.000  0.036  0.000  0.264  0.036  0.088  0.442
tot  0.000  0.019  0.019  0.000  0.071  0.000  0.528  0.071  0.176  0.884
 
band   4 # energy    4.31594836 # occ.  1.00000000
 
ion      s     py     pz     px    dxy    dyz    dz2    dxz    dx2    tot
  1  0.000  0.008  0.008  0.000  0.185  0.000  0.072  0.185  0.024  0.482
  2  0.000  0.008  0.008  0.000  0.185  0.000  0.072  0.185  0.024  0.482
tot  0.000  0.016  0.016  0.000  0.370  0.000  0.144  0.370  0.048  0.963
 
band   5 # energy    4.35432473 # occ.  1.00000000
 
ion      s     py     pz     px    dxy    dyz    dz2    dxz    dx2    tot
  1  0.001  0.003  0.003  0.008  0.124  0.231  0.000  0.124  0.000  0.493
  2  0.001  0.003  0.003  0.008  0.124  0.231  0.000  0.124  0.000  0.493
tot  0.003  0.005  0.005  0.017  0.247  0.462  0.000  0.247  0.000  0.987
 
band   6 # energy    4.75662492 # occ.  1.00000000
 
ion      s     py     pz     px    dxy    dyz    dz2    dxz    dx2    tot
  1  0.002  0.008  0.008  0.004  0.125  0.170  0.010  0.125  0.029  0.480
  2  0.002  0.008  0.008  0.004  0.125  0.170  0.010  0.125  0.029  0.480
tot  0.004  0.016  0.016  0.008  0.250  0.340  0.019  0.250  0.058  0.961
 
band   7 # energy    5.75953530 # occ. -0.00000530
 
ion      s     py     pz     px    dxy    dyz    dz2    dxz    dx2    tot
  1  0.000  0.007  0.007  0.000  0.191  0.000  0.065  0.191  0.022  0.484
  2  0.000  0.007  0.007  0.000  0.191  0.000  0.065  0.191  0.022  0.484
tot  0.000  0.014  0.014  0.000  0.383  0.000  0.131  0.383  0.044  0.968
 
band   8 # energy    5.86416237 # occ.  0.00000000
 
ion      s     py     pz     px    dxy    dyz    dz2    dxz    dx2    tot
  1  0.000  0.000  0.000  0.000  0.054  0.000  0.279  0.054  0.093  0.481
  2  0.000  0.000  0.000  0.000  0.054  0.000  0.279  0.054  0.093  0.481
tot  0.000  0.001  0.001  0.000  0.109  0.000  0.558  0.109  0.186  0.962
 
band   9 # energy    6.31040417 # occ.  0.00000000
 
ion      s     py     pz     px    dxy    dyz    dz2    dxz    dx2    tot
  1  0.001  0.005  0.005  0.004  0.107  0.265  0.001  0.107  0.003  0.498
  2  0.001  0.005  0.005  0.004  0.107  0.265  0.001  0.107  0.003  0.498
tot  0.003  0.009  0.009  0.009  0.215  0.530  0.002  0.215  0.005  0.996
 
band  10 # energy    6.82534285 # occ.  0.00000000
 
ion      s     py     pz     px    dxy    dyz    dz2    dxz    dx2    tot
  1  0.004  0.000  0.000  0.002  0.063  0.309  0.014  0.063  0.041  0.496
  2  0.004  0.000  0.000  0.002  0.063  0.309  0.014  0.063  0.041  0.496
tot  0.008  0.001  0.001  0.004  0.126  0.619  0.027  0.126  0.082  0.993
 
band  11 # energy    7.11675967 # occ.  0.00000000
 
ion      s     py     pz     px    dxy    dyz    dz2    dxz    dx2    tot
  1  0.011  0.001  0.001  0.004  0.000  0.002  0.120  0.000  0.361  0.499
  2  0.011  0.001  0.001  0.004  0.000  0.002  0.120  0.000  0.361  0.499
tot  0.021  0.001  0.001  0.008  0.000  0.005  0.240  0.000  0.721  0.998
 
band  12 # energy    9.21293286 # occ.  0.00000000
 
ion      s     py     pz     px    dxy    dyz    dz2    dxz    dx2    tot
  1  0.067  0.008  0.008  0.094  0.020  0.015  0.053  0.020  0.159  0.444
  2  0.067  0.008  0.008  0.094  0.020  0.015  0.053  0.020  0.159  0.444
tot  0.135  0.017  0.017  0.188  0.039  0.029  0.106  0.039  0.318  0.888
 

 k-point    3 :    0.37500000 0.37500000 0.12500000     weight = 0.37500000

band   1 # energy    1.57922988 # occ.  1.00000000
 
ion      s     py     pz     px    dxy    dyz    dz2    dxz    dx2    tot
  1  0.134  0.024  0.009  0.024  0.156  0.002  0.049  0.002  0.000  0.400
  2  0.134  0.024  0.009  0.024  0.156  0.002  0.049  0.002  0.000  0.400
tot  0.268  0.049  0.018  0.049  0.313  0.003  0.097  0.003  0.000  0.800
 
band   2 # energy    2.37287322 # occ.  1.00000000
 
ion      s     py     pz     px    dxy    dyz    dz2    dxz    dx2    tot
  1  0.056  0.005  0.008  0.005  0.231  0.003  0.126  0.003  0.000  0.436
  2  0.056  0.005  0.008  0.005  0.231  0.003  0.126  0.003  0.000  0.436
tot  0.112  0.011  0.016  0.011  0.461  0.006  0.252  0.006  0.000  0.873
 
band   3 # energy    3.66516667 # occ.  1.00000000
 
ion      s     py     pz     px    dxy    dyz    dz2    dxz    dx2    tot
  1  0.000  0.002  0.000  0.002  0.000  0.243  0.000  0.243  0.003  0.492
  2  0.000  0.002  0.000  0.002  0.000  0.243  0.000  0.243  0.003  0.492
tot  0.000  0.004  0.000  0.004  0.000  0.485  0.000  0.485  0.006  0.985
 
band   4 # energy    3.86246176 # occ.  1.00000000
 
ion      s     py     pz     px    dxy    dyz    dz2    dxz    dx2    tot
  1  0.001  0.002  0.007  0.002  0.001  0.229  0.018  0.229  0.000  0.489
  2  0.001  0.002  0.007  0.002  0.001  0.229  0.018  0.229  0.000  0.489
tot  0.002  0.004  0.014  0.004  0.002  0.457  0.037  0.457  0.000  0.977
 
band   5 # energy    4.46306652 # occ.  1.00000000
 
ion      s     py     pz     px    dxy    dyz    dz2    dxz    dx2    tot
  1  0.019  0.061  0.001  0.061  0.132  0.051  0.045  0.051  0.000  0.420
  2  0.019  0.061  0.001  0.061  0.132  0.051  0.045  0.051  0.000  0.420
tot  0.038  0.122  0.001  0.122  0.263  0.101  0.091  0.101  0.000  0.840
 
band   6 # energy    4.47911898 # occ.  1.00000000
 
ion      s     py     pz     px    dxy    dyz    dz2    dxz    dx2    tot
  1  0.000  0.070  0.000  0.070  0.000  0.032  0.000  0.032  0.207  0.410
  2  0.000  0.070  0.000  0.070  0.000  0.032  0.000  0.032  0.207  0.410
tot  0.000  0.139  0.000  0.139  0.000  0.064  0.000  0.064  0.413  0.821
 
band   7 # energy    6.30207777 # occ.  0.00000000
 
ion      s     py     pz     px    dxy    dyz    dz2    dxz    dx2    tot
  1  0.005  0.000  0.000  0.000  0.163  0.009  0.306  0.009  0.000  0.493
  2  0.005  0.000  0.000  0.000  0.163  0.009  0.306  0.009  0.000  0.493
tot  0.009  0.001  0.001  0.001  0.326  0.019  0.612  0.019  0.000  0.987
 
band   8 # energy    6.50991814 # occ.  0.00000000
 
ion      s     py     pz     px    dxy    dyz    dz2    dxz    dx2    tot
  1  0.002  0.000  0.000  0.000  0.104  0.005  0.379  0.005  0.000  0.496
  2  0.002  0.000  0.000  0.000  0.104  0.005  0.379  0.005  0.000  0.496
tot  0.004  0.000  0.000  0.000  0.208  0.010  0.759  0.010  0.000  0.992
 
band   9 # energy    6.89416362 # occ.  0.00000000
 
ion      s     py     pz     px    dxy    dyz    dz2    dxz    dx2    tot
  1  0.000  0.000  0.000  0.000  0.000  0.002  0.000  0.002  0.498  0.502
  2  0.000  0.000  0.000  0.000  0.000  0.002  0.000  0.002  0.498  0.502
tot  0.000  0.000  0.000  0.000  0.000  0.004  0.000  0.004  0.995  1.003
 
band  10 # energy    7.08077381 # occ.  0.00000000
 
ion      s     py     pz     px    dxy    dyz    dz2    dxz    dx2    tot
  1  0.000  0.004  0.000  0.004  0.000  0.160  0.000  0.160  0.170  0.498
  2  0.000  0.004  0.000  0.004  0.000  0.160  0.000  0.160  0.170  0.498
tot  0.000  0.009  0.000  0.009  0.000  0.320  0.000  0.320  0.339  0.997
 
band  11 # energy    7.53053690 # occ.  0.00000000
 
ion      s     py     pz     px    dxy    dyz    dz2    dxz    dx2    tot
  1  0.009  0.016  0.005  0.016  0.051  0.191  0.000  0.191  0.000  0.479
  2  0.009  0.016  0.005  0.016  0.051  0.191  0.000  0.191  0.000  0.479
tot  0.019  0.032  0.010  0.032  0.102  0.381  0.000  0.381  0.000  0.959
 
band  12 # energy    9.53772104 # occ.  0.00000000
 
ion      s     py     pz     px    dxy    dyz    dz2    dxz    dx2    tot