unknown system                          
   1.00000000000000     
     0.000000    1.950000    1.950000
     1.950000    0.000000    1.950000
     1.950000    1.950000    0.000000
   Pd
     1
Direct
  0.000000  0.000000  0.000000
 
   24   24   24
  93.708      89.811      79.478      65.771      51.497      38.205      26.628      17.397      11.026      7.3843    
  5.5227      4.5217      4.2072      4.5217      5.5227      7.3843      11.026      17.397      26.628      38.205    
  51.497      65.771      79.478      89.811      89.814      82.724      70.810      57.056      43.573      31.384    
  21.143      13.509      8.7357      6.2310      4.8711      4.2339      4.2416      4.8789      6.2232      8.7280    
  13.516      21.151      31.377      43.566      57.064      70.818      82.716      89.807      79.483      70.819    
  59.082      46.541      34.607      24.108      15.769      10.103      6.9250      5.2566      4.3341      4.0398    
  4.3341      5.2566      6.9250      10.103      15.769      24.108      34.607      46.541      59.082      70.819    
  79.483      82.715      65.769      57.063      46.549      35.750      25.728      17.343      11.251      7.5568    
  5.5920      4.4631      3.9398      3.9340      4.4573      5.5979      7.5627      11.245      17.337      25.734    
  35.755      46.543      57.057      65.775      70.817      70.811      51.488      43.570      34.611      25.731    
  17.899      11.895      8.0169      5.8535      4.5764      3.8901      3.6800      3.8901      4.5764      5.8535    
  8.0169      11.895      17.899      25.731      34.611      43.570      51.488      57.060      59.085      57.060    
  38.204      31.379      24.105      17.341      11.893      8.1776      5.9948      4.6645      3.8747      3.5232    
  3.5265      3.8779      4.6613      5.9915      8.1808      11.896      17.338      24.102      31.382      38.207    
  43.568      46.544      46.548      43.571      26.634      21.146      15.769      11.249      8.0137      5.9917    
  4.6924      3.8760      3.4490      3.3181      3.4490      3.8760      4.6924      5.9917      8.0137      11.249    
  15.769      21.146      26.634      31.382      34.607      35.751      34.607      31.382      17.398      13.512    
  10.107      7.5603      5.8541      4.6623      3.8739      3.4268      3.2303      3.2292      3.4257      3.8751    
  4.6634      5.8529      7.5591      10.109      13.513      17.397      21.147      24.104      25.731      25.730    
  24.103      21.148      11.020      8.7319      6.9246      5.5949      4.5800      3.8763      3.4486      3.2297    
  3.1639      3.2298      3.4486      3.8763      4.5800      5.5949      6.9246      8.7319      11.020      13.513    
  15.768      17.340      17.903      17.340      15.768      13.513      7.3844      6.2272      5.2516      4.4600    
  3.8902      3.5250      3.3194      3.2297      3.2299      3.3196      3.5247      3.8900      4.4603      5.2518    
  6.2270      7.3842      8.7320      10.108      11.248      11.895      11.895      11.248      10.108      8.7318    
  5.5284      4.8750      4.3341      3.9369      3.6768      3.5249      3.4490      3.4263      3.4490      3.5249    
  3.6768      3.9369      4.3341      4.8750      5.5284      6.2271      6.9250      7.5598      8.0137      8.1792    
  8.0137      7.5598      6.9250      6.2271      4.5217      4.2377      4.0448      3.9369      3.8901      3.8763    
  3.8745      3.8746      3.8764      3.8901      3.9369      4.0447      4.2377      4.5217      4.8750      5.2517    
  5.5949      5.8535      5.9931      5.9932      5.8535      5.5949      5.2517      4.8750      4.2016      4.2377    
  4.3341      4.4602      4.5797      4.6629      4.6924      4.6629      4.5796      4.4602      4.3341      4.2377    
  4.2016      4.2377      4.3341      4.4602      4.5796      4.6629      4.6924      4.6629      4.5797      4.4602    
  4.3341      4.2377      4.5217      4.8750      5.2517      5.5949      5.8535      5.9932      5.9931      5.8535    
  5.5949      5.2517      4.8750      4.5217      4.2377      4.0447      3.9369      3.8901      3.8764      3.8746    
  3.8745      3.8763      3.8901      3.9369      4.0448      4.2377      5.5284      6.2271      6.9250      7.5598    
  8.0137      8.1792      8.0137      7.5598      6.9250      6.2271      5.5284      4.8750      4.3341      3.9369    
  3.6768      3.5249      3.4490      3.4263      3.4490      3.5249      3.6768      3.9369      4.3341      4.8750    
  7.3844      8.7318      10.108      11.248      11.895      11.895      11.248      10.108      8.7320      7.3842    
  6.2270      5.2518      4.4603      3.8900      3.5247      3.3196      3.2299      3.2297      3.3194      3.5250    
  3.8902      4.4600      5.2516      6.2272      11.020      13.513      15.768      17.340      17.903      17.340    
  15.768      13.513      11.020      8.7319      6.9246      5.5949      4.5800      3.8763      3.4486      3.2298    
  3.1639      3.2297      3.4486      3.8763      4.5800      5.5949      6.9246      8.7319      17.398      21.148    
  24.103      25.730      25.731      24.104      21.147      17.397      13.513      10.109      7.5591      5.8529    
  4.6634      3.8751      3.4257      3.2292      3.2303      3.4268      3.8739      4.6623      5.8541      7.5603    
  10.107      13.512      26.634      31.382      34.607      35.751      34.607      31.382      26.634      21.146    
  15.769      11.249      8.0137      5.9917      4.6924      3.8760      3.4490      3.3181      3.4490      3.8760    
  4.6924      5.9917      8.0137      11.249      15.769      21.146      38.204      43.571      46.548      46.544    
  43.568      38.207      31.382      24.102      17.338      11.896      8.1808      5.9915      4.6613      3.8779    
  3.5265      3.5232      3.8747      4.6645      5.9948      8.1776      11.893      17.341      24.105      31.379    
  51.488      57.060      59.085      57.060      51.488      43.570      34.611      25.731      17.899      11.895    
  8.0169      5.8535      4.5764      3.8901      3.6800      3.8901      4.5764      5.8535      8.0169      11.895    
  17.899      25.731      34.611      43.570      65.769      70.811      70.817      65.775      57.057      46.543    
  35.755      25.734      17.337      11.245      7.5627      5.5979      4.4573      3.9340      3.9398      4.4631    
  5.5920      7.5568      11.251      17.343      25.728      35.750      46.549      57.063      79.483      82.715    
  79.483      70.819      59.082      46.541      34.607      24.108      15.769      10.103      6.9250      5.2566    
  4.3341      4.0398      4.3341      5.2566      6.9250      10.103      15.769      24.108      34.607      46.541    
  59.082      70.819      89.814      89.807      82.716      70.818      57.064      43.566      31.377      21.151    
  13.516      8.7280      6.2232      4.8789      4.2416      4.2339      4.8711      6.2310      8.7357      13.509    
  21.143      31.384      43.573      57.056      70.810      82.724      89.814      82.724      70.810      57.056    
  43.573      31.384      21.143      13.509      8.7357      6.2310      4.8711      4.2339      4.2416      4.8789    
  6.2232      8.7280      13.516      21.151      31.377      43.566      57.064      70.818      82.716      89.807    
  82.720      73.454      61.018      47.899      35.567      24.789      16.223      10.369      7.0663      5.3478    
  4.3991      4.0954      4.3991      5.3478      7.0662      10.369      16.223      24.790      35.567      47.899    
  61.018      73.454      82.720      86.191      70.811      61.021      49.449      37.833      27.220      18.365    
  11.876      7.8926      5.7880      4.5986      4.0426      4.0362      4.5922      5.7944      7.8990      11.870    
  18.358      27.227      37.839      49.442      61.015      70.817      76.566      76.560      57.056      47.904    
  37.840      28.080      19.532      12.922      8.5830      6.1619      4.7824      4.0332      3.8025      4.0332    
  4.7825      6.1620      8.5830      12.922      19.532      28.080      37.840      47.904      57.056      63.654    
  66.084      63.654      43.568      35.565      27.225      19.537      13.297      8.9655      6.4153      4.9363    
  4.0511      3.6537      3.6577      4.0551      4.9323      6.4113      8.9695      13.301      19.534      27.221    
  35.569      43.572      50.029      53.689      53.693      50.033      31.380      24.782      18.362      12.924    
  8.9675      6.5012      5.0143      4.0765      3.5807      3.4278      3.5807      4.0765      5.0143      6.5012    
  8.9675      12.924      18.362      24.782      31.380      37.188      41.209      42.652      41.209      37.188    
  21.148      16.222      11.872      8.5801      6.4141      5.0134      4.0824      3.5504      3.3155      3.3138    
  3.5487      4.0841      5.0151      6.4124      8.5784      11.874      16.224      21.146      25.908      29.698    
  31.803      31.801      29.697      25.910      13.513      10.374      7.8952      6.1619      4.9349      4.0746    
  3.5489      3.2799      3.1990      3.2799      3.5489      4.0746      4.9350      6.1619      7.8952      10.374    
  13.513      16.908      19.973      22.112      22.880      22.112      19.973      16.908      8.7321      7.0665    
  5.7910      4.7860      4.0533      3.5809      3.3144      3.1982      3.1986      3.3149      3.5805      4.0530    
  4.7864      5.7914      7.0661      8.7317      10.729      12.773      14.461      15.418      15.419      14.462    
  12.773      10.729      6.2271      5.3428      4.5953      4.0331      3.6557      3.4299      3.3147      3.2798    
  3.3147      3.4299      3.6557      4.0331      4.5954      5.3428      6.2271      7.2295      8.3259      9.3585    
  10.105      10.378      10.105      9.3585      8.3259      7.2295      4.8750      4.3991      4.0394      3.7987    
  3.6557      3.5807      3.5495      3.5495      3.5807      3.6557      3.7987      4.0394      4.3991      4.8750    
  5.4308      6.0013      6.5281      6.9546      7.1977      7.1977      6.9545      6.5281      6.0014      5.4307    
  4.2377      4.1006      4.0394      4.0332      4.0531      4.0746      4.0832      4.0746      4.0532      4.0332    
  4.0394      4.1006      4.2377      4.4514      4.7170      4.9919      5.2283      5.3865      5.4420      5.3865    
  5.2283      4.9919      4.7170      4.4514      4.2378      4.3991      4.5954      4.7862      4.9343      5.0143    
  5.0143      4.9343      4.7862      4.5954      4.3991      4.2377      4.1410      4.1167      4.1497      4.2106    
  4.2693      4.3039      4.3039      4.2693      4.2107      4.1497      4.1167      4.1410      4.8750      5.3427    
  5.7912      6.1620      6.4133      6.5032      6.4133      6.1619      5.7912      5.3427      4.8750      4.4514    
  4.1167      3.8863      3.7480      3.6757      3.6435      3.6346      3.6435      3.6757      3.7480      3.8863    
  4.1167      4.4514      6.2271      7.0662      7.8958      8.5793      8.9676      8.9675      8.5792      7.8959    
  7.0663      6.2271      5.4307      4.7171      4.1497      3.7480      3.4935      3.3514      3.2894      3.2894    
  3.3514      3.4936      3.7480      4.1497      4.7170      5.4308      8.7320      10.374      11.873      12.922    
  13.299      12.922      11.873      10.374      8.7320      7.2296      6.0012      4.9919      4.2108      3.6757    
  3.3512      3.1847      3.1344      3.1848      3.3512      3.6757      4.2108      4.9919      6.0011      7.2296    
  13.513      16.223      18.361      19.535      19.536      18.362      16.223      13.512      10.730      8.3263    
  6.5278      5.2279      4.2697      3.6438      3.2890      3.1339      3.1346      3.2897      3.6431      4.2690    
  5.2286      6.5285      8.3255      10.729      21.147      24.785      27.223      28.079      27.223      24.785    
  21.147      16.907      12.773      9.3594      6.9546      5.3856      4.3039      3.6356      3.2894      3.1838    
  3.2893      3.6355      4.3039      5.3856      6.9546      9.3594      12.773      16.907      31.379      35.568    
  37.837      37.835      35.566      31.382      25.910      19.973      14.461      10.106      7.1989      5.4409    
  4.3027      3.6447      3.3526      3.3502      3.6423      4.3050      5.4432      7.1966      10.104      14.463    
  19.975      25.908      43.567      47.904      49.448      47.904      43.567      37.186      29.700      22.112    
  15.416      10.378      7.2002      5.3865      4.2669      3.6757      3.4960      3.6757      4.2668      5.3866    
  7.2002      10.378      15.416      22.112      29.700      37.186      57.057      61.016      61.020      57.062    
  50.029      41.206      31.805      22.882      15.416      10.102      6.9569      5.2307      4.2083      3.7456    
  3.7504      4.2130      5.2259      6.9522      10.107      15.421      22.877      31.800      41.211      50.033    
  70.814      73.445      70.814      63.658      53.691      42.650      31.802      22.116      14.462      9.3541    
  6.5281      4.9961      4.1497      3.8820      4.1497      4.9961      6.5281      9.3542      14.462      22.116    
  31.802      42.650      53.691      63.658      82.723      82.716      76.559      66.084      53.695      41.205    
  29.694      19.977      12.776      8.3224      5.9978      4.7205      4.1202      4.1132      4.7135      6.0048    
  8.3294      12.769      19.971      29.701      41.212      53.688      66.077      76.566      89.816      86.196    
  76.557      63.654      50.036      37.186      25.904      16.908      10.735      7.2296      5.4254      4.4514    
  4.1464      4.4514      5.4254      7.2296      10.735      16.908      25.904      37.186      50.036      63.654    
  76.557      86.196      79.483      70.819      59.082      46.541      34.607      24.108      15.769      10.103    
  6.9250      5.2566      4.3341      4.0398      4.3341      5.2566      6.9250      10.103      15.769      24.108    
  34.607      46.541      59.082      70.819      79.483      82.715      70.811      61.021      49.449      37.833    
  27.220      18.365      11.876      7.8926      5.7880      4.5986      4.0426      4.0362      4.5922      5.7944    
  7.8990      11.870      18.358      27.227      37.839      49.442      61.015      70.817      76.566      76.560    
  59.078      49.446      38.964      28.889      20.096      13.284      8.7852      6.2706      4.8548      4.0835    
  3.8455      4.0835      4.8548      6.2706      8.7852      13.284      20.097      28.889      38.964      49.446    
  59.078      66.081      68.672      66.081      46.544      37.834      28.891      20.712      14.060      9.4032    
  6.6461      5.0825      4.1466      3.7240      3.7284      4.1510      5.0781      6.6418      9.4077      14.065    
  20.707      28.887      37.838      46.548      53.689      57.783      57.787      53.693      34.607      27.221    
  20.100      14.065      9.6304      6.8496      5.2263      4.2098      3.6677      3.5000      3.6677      4.2098    
  5.2263      6.8496      9.6305      14.065      20.100      27.221      34.607      41.211      45.854      47.535    
  45.854      41.211      24.104      18.361      13.282      9.4064      6.8530      5.2759      4.2401      3.6435    
  3.3791      3.3770      3.6414      4.2422      5.2780      6.8508      9.4044      13.285      18.363      24.102    
  29.696      34.200      36.727      36.725      34.198      29.699      15.770      11.873      8.7804      6.6439    
  5.2272      4.2411      3.6348      3.3241      3.2306      3.3241      3.6347      4.2411      5.2272      6.6439    
  8.7804      11.873      15.770      19.974      23.782      26.454      27.418      26.454      23.782      19.974    
  10.108      7.8962      6.2703      5.0800      4.2078      3.6428      3.3238      3.1846      3.1852      3.3244    
  3.6422      4.2072      5.0806      6.2709      7.8955      10.108      12.773      15.496      17.744      19.019    
  19.020      17.745      15.495      12.773      6.9250      5.7914      4.8587      4.1486      3.6677      3.3782    
  3.2297      3.1847      3.2297      3.3782      3.6678      4.1486      4.8587      5.7914      6.9250      8.3257    
  9.9075      11.409      12.495      12.892      12.495      11.409      9.9075      8.3257      5.2517      4.5954    
  4.0836      3.7262      3.5022      3.3781      3.3241      3.3240      3.3780      3.5023      3.7263      4.0835    
  4.5953      5.2518      6.0014      6.7957      7.5944      8.2690      8.6599      8.6598      8.2689      7.5944    
  6.7957      6.0013      4.3341      4.0394      3.8416      3.7262      3.6677      3.6424      3.6356      3.6425    
  3.6678      3.7263      3.8416      4.0394      4.3341      4.7171      5.1517      5.5812      5.9440      6.1914    
  6.2804      6.1914      5.9440      5.5812      5.1517      4.7170      4.0448      4.0394      4.0835      4.1487    
  4.2075      4.2411      4.2411      4.2075      4.1488      4.0835      4.0394      4.0447      4.1167      4.2517    
  4.4253      4.6008      4.7410      4.8182      4.8182      4.7410      4.6008      4.4254      4.2517      4.1167    
  4.3341      4.5954      4.8587      5.0803      5.2263      5.2770      5.2263      5.0803      4.8587      4.5954    
  4.3341      4.1167      3.9690      3.8939      3.8741      3.8835      3.8987      3.9053      3.8987      3.8835    
  3.8741      3.8940      3.9691      4.1167      5.2517      5.7912      6.2706      6.6440      6.8519      6.8519    
  6.6439      6.2706      5.7912      5.2517      4.7171      4.2517      3.8939      3.6493      3.4999      3.4189    
  3.3843      3.3844      3.4190      3.4999      3.6494      3.8940      4.2517      4.7170      6.9251      7.8958    
  8.7812      9.4055      9.6305      9.4055      8.7812      7.8958      6.9251      6.0014      5.1516      4.4254    
  3.8742      3.4999      3.2728      3.1556      3.1200      3.1556      3.2729      3.4999      3.8742      4.4253    
  5.1516      6.0013      10.108      11.873      13.283      14.063      14.063      13.284      11.873      10.108    
  8.3260      6.7959      5.5811      4.6006      3.8836      3.4191      3.1555      3.0397      3.0400      3.1558    
  3.4188      3.8833      4.6009      5.5813      6.7955      8.3257      15.769      18.362      20.100      20.709    
  20.100      18.362      15.769      12.772      9.9075      7.5949      5.9440      4.7405      3.8987      3.3849    
  3.1199      3.0393      3.1199      3.3848      3.8987      4.7404      5.9440      7.5949      9.9075      12.772    
  24.103      27.224      28.890      28.888      27.223      24.104      19.975      15.495      11.408      8.2697    
  6.1922      4.8175      3.9046      3.3851      3.1564      3.1549      3.3836      3.9060      4.8189      6.1907    
  8.2683      11.409      15.496      19.973      34.606      37.836      38.962      37.836      34.606      29.697    
  23.785      17.744      12.493      8.6599      6.2821      4.8182      3.8970      3.4190      3.2746      3.4189    
  3.8970      4.8182      6.2822      8.6600      12.493      17.744      23.785      29.697      46.544      49.444    
  49.447      46.548      41.207      34.198      26.456      19.022      12.890      8.6581      6.1932      4.7427    
  3.8817      3.4981      3.5017      3.8852      4.7392      6.1897      8.6617      12.894      19.018      26.452    
  34.201      41.210      59.082      61.015      59.082      53.694      45.854      36.723      27.417      19.023    
  12.495      8.2656      5.9440      4.6041      3.8741      3.6460      3.8741      4.6041      5.9440      8.2657    
  12.495      19.023      27.417      36.723      45.854      53.694      70.817      70.811      66.078      57.788    
  47.540      36.723      26.451      17.747      11.411      7.5915      5.5783      4.4283      3.8969      3.8911    
  4.4224      5.5841      7.5973      11.406      17.742      26.457      36.729      47.535      57.782      66.084    
  79.488      76.563      68.663      57.785      45.858      34.199      23.778      15.496      9.9122      6.7957    
  5.1470      4.2517      3.9738      4.2517      5.1470      6.7957      9.9122      15.496      23.778      34.199    
  45.858      57.785      68.663      76.563      82.723      76.566      66.077      53.688      41.212      29.701    
  19.971      12.769      8.3294      6.0048      4.7135      4.1132      4.1202      4.7205      5.9978      8.3224    
  12.776      19.977      29.694      41.205      53.695      66.084      76.559      82.716      65.769      57.063    
  46.549      35.750      25.728      17.343      11.251      7.5568      5.5920      4.4631      3.9398      3.9340    
  4.4573      5.5979      7.5627      11.245      17.337      25.734      35.755      46.543      57.057      65.775    
  70.817      70.811      57.056      47.904      37.840      28.080      19.532      12.922      8.5830      6.1619    
  4.7824      4.0332      3.8025      4.0332      4.7825      6.1620      8.5830      12.922      19.532      28.080    
  37.840      47.904      57.056      63.654      66.084      63.654      46.544      37.834      28.891      20.712    
  14.060      9.4032      6.6461      5.0825      4.1466      3.7240      3.7284      4.1510      5.0781      6.6418    
  9.4077      14.065      20.707      28.887      37.838      46.548      53.689      57.783      57.787      53.693    
  35.753      28.078      20.710      14.468      9.8672      6.9740      5.3001      4.2565      3.6982      3.5251    
  3.6982      4.2565      5.3002      6.9741      9.8673      14.468      20.710      28.078      35.753      42.656    
  47.537      49.311      47.537      42.656      25.732      19.534      14.061      9.8684      7.0970      5.4157    
  4.3248      3.6936      3.4130      3.4106      3.6911      4.3272      5.4181      7.0946      9.8661      14.064    
  19.537      25.730      31.801      36.727      39.508      39.506      36.725      31.803      17.341      12.922    
  9.4043      6.9764      5.4180      4.3514      3.6920      3.3537      3.2519      3.3537      3.6919      4.3513    
  5.4179      6.9764      9.4044      12.922      17.341      22.112      26.453      29.516      30.625      29.517    
  26.453      22.112      11.248      8.5797      6.6435      5.2997      4.3265      3.6935      3.3358      3.1798    
  3.1806      3.3366      3.6926      4.3256      5.3005      6.6443      8.5788      11.247      14.462      17.745    
  20.460      22.004      22.005      20.461      17.744      14.461      7.5597      6.1622      5.0803      4.2539    
  3.6924      3.3540      3.1803      3.1275      3.1802      3.3539      3.6924      4.2538      5.0803      6.1622    
  7.5597      9.3581      11.408      13.356      14.766      15.281      14.766      13.356      11.408      9.3582    
  5.5948      4.7862      4.1489      3.6982      3.4118      3.2509      3.1803      3.1802      3.2508      3.4119    
  3.6983      4.1487      4.7861      5.5950      6.5282      7.5943      8.7089      9.6630      10.218      10.218    
  9.6628      8.7090      7.5944      6.5281      4.4601      4.0332      3.7263      3.5276      3.4118      3.3537    
  3.3362      3.3537      3.4118      3.5276      3.7263      4.0332      4.4602      4.9919      5.5813      6.1611    
  6.6781      7.0495      7.1860      7.0495      6.6781      6.1611      5.5812      4.9919      3.9369      3.7987    
  3.7262      3.6982      3.6923      3.6930      3.6930      3.6924      3.6982      3.7263      3.7987      3.9369    
  4.1497      4.4254      4.7311      5.0205      5.2460      5.3692      5.3692      5.2460      5.0205      4.7310    
  4.4253      4.1497      3.9369      4.0332      4.1487      4.2541      4.3260      4.3513      4.3260      4.2541    
  4.1488      4.0332      3.9369      3.8862      3.8939      3.9536      4.0430      4.1333      4.1986      4.2222    
  4.1986      4.1332      4.0430      3.9536      3.8939      3.8863      4.4602      4.7862      5.0804      5.3001    
  5.4169      5.4169      5.3001      5.0803      4.7862      4.4602      4.1497      3.8939      3.7123      3.6022    
  3.5459      3.5219      3.5140      3.5141      3.5220      3.5459      3.6022      3.7123      3.8940      4.1497    
  5.5949      6.1620      6.6440      6.9765      7.0958      6.9764      6.6439      6.1619      5.5949      4.9919    
  4.4254      3.9536      3.6022      3.3663      3.2235      3.1492      3.1264      3.1492      3.2235      3.3663    
  3.6022      3.9536      4.4254      4.9919      7.5598      8.5793      9.4054      9.8673      9.8674      9.4055    
  8.5792      7.5597      6.5282      5.5813      4.7310      4.0429      3.5459      3.2235      3.0387      2.9564    
  2.9565      3.0388      3.2234      3.5459      4.0430      4.7311      5.5812      6.5281      11.248      12.923    
  14.063      14.465      14.063      12.923      11.248      9.3582      7.5944      6.1613      5.0205      4.1330    
  3.5219      3.1494      2.9564      2.8976      2.9565      3.1494      3.5219      4.1330      5.0205      6.1613    
  7.5944      9.3582      17.339      19.536      20.710      20.709      19.535      17.340      14.462      11.408    
  8.7086      6.6785      5.2464      4.1982      3.5137      3.1268      2.9568      2.9561      3.1260      3.5144    
  4.1989      5.2456      6.6777      8.7094      11.409      14.461      25.730      28.080      28.890      28.080    
  25.730      22.112      17.745      13.356      9.6619      7.0495      5.3702      4.2222      3.5131      3.1492    
  3.0397      3.1492      3.5130      4.2222      5.3702      7.0495      9.6619      13.356      17.745      22.112    
  35.751      37.835      37.837      35.754      31.801      26.453      20.462      14.767      10.217      7.1848    
  5.3704      4.1997      3.5209      3.2224      3.2246      3.5231      4.1974      5.3681      7.1871      10.219    
  14.765      20.459      26.455      31.803      46.546      47.901      46.546      42.656      36.726      29.514    
  22.004      15.284      10.218      7.0472      5.2460      4.1356      3.5459      3.3640      3.5459      4.1356    
  5.2460      7.0472      10.218      15.284      22.005      29.514      36.726      42.656      57.062      57.058    
  53.689      47.540      39.509      30.622      22.002      14.768      9.6650      6.6760      5.0184      4.0451    
  3.6044      3.6001      4.0408      5.0227      6.6802      9.6608      14.764      22.007      30.626      39.505    
  47.535      53.693      65.775      63.654      57.781      49.313      39.511      29.516      20.457      13.356    
  8.7127      6.1611      4.7274      3.9536      3.7160      3.9536      4.7274      6.1611      8.7127      13.356    
  20.457      29.516      39.511      49.313      57.781      63.654      70.817      66.084      57.782      47.535    
  36.729      26.457      17.742      11.406      7.5973      5.5841      4.4224      3.8911      3.8969      4.4283    
  5.5783      7.5915      11.411      17.747      26.451      36.723      47.540      57.788      66.078      70.811    
  70.814      63.658      53.691      42.650      31.802      22.116      14.462      9.3542      6.5281      4.9961    
  4.1497      3.8820      4.1497      4.9961      6.5281      9.3541      14.462      22.116      31.802      42.650    
  53.691      63.658      70.814      73.445      51.488      43.570      34.611      25.731      17.899      11.895    
  8.0169      5.8535      4.5764      3.8901      3.6800      3.8901      4.5764      5.8535      8.0169      11.895    
  17.899      25.731      34.611      43.570      51.488      57.060      59.085      57.060      43.568      35.565    
  27.225      19.537      13.297      8.9655      6.4153      4.9363      4.0511      3.6537      3.6577      4.0551    
  4.9323      6.4113      8.9695      13.301      19.534      27.221      35.569      43.572      50.029      53.689    
  53.693      50.033      34.607      27.221      20.100      14.065      9.6304      6.8496      5.2263      4.2098    
  3.6677      3.5000      3.6677      4.2098      5.2263      6.8496      9.6305      14.065      20.100      27.221    
  34.607      41.211      45.854      47.535      45.854      41.211      25.732      19.534      14.061      9.8684    
  7.0970      5.4157      4.3248      3.6936      3.4130      3.4106      3.6911      4.3272      5.4181      7.0946    
  9.8661      14.064      19.537      25.730      31.801      36.727      39.508      39.506      36.725      31.803    
  17.904      13.299      9.6293      7.0958      5.4841      4.3898      3.7120      3.3640      3.2593      3.3640    
  3.7119      4.3897      5.4840      7.0958      9.6293      13.299      17.903      22.879      27.415      30.624    
  31.786      30.624      27.416      22.879      11.895      8.9680      6.8514      5.4164      4.3903      3.7215    
  3.3434      3.1785      3.1794      3.3442      3.7204      4.3892      5.4173      6.8523      8.9670      11.894    
  15.419      19.020      22.004      23.703      23.704      22.005      19.019      15.418      8.0137      6.4136    