unknown system                          
   1.00000000000000     
     0.000000    1.950000    1.950000
     1.950000    0.000000    1.950000
     1.950000    1.950000    0.000000
   Pd
     1
Direct
  0.000000  0.000000  0.000000
 
   24   24   24
  93.713      89.815      79.481      65.771      51.491      38.195      26.617      17.390      11.022      7.3825    
  5.5215      4.5208      4.2064      4.5208      5.5215      7.3825      11.022      17.390      26.617      38.195    
  51.491      65.771      79.481      89.815      89.819      82.727      70.811      57.052      43.564      31.373    
  21.134      13.503      8.7333      6.2297      4.8701      4.2330      4.2407      4.8778      6.2219      8.7256    
  13.511      21.142      31.365      43.557      57.059      70.819      82.719      89.811      79.487      70.820    
  59.079      46.533      34.596      24.098      15.762      10.100      6.9234      5.2556      4.3333      4.0390    
  4.3332      5.2554      6.9234      10.100      15.762      24.098      34.596      46.533      59.078      70.819    
  79.486      82.718      65.768      57.059      46.541      35.739      25.717      17.335      11.247      7.5548    
  5.5908      4.4622      3.9391      3.9331      4.4562      5.5965      7.5608      11.241      17.329      25.723    
  35.745      46.535      57.052      65.773      70.817      70.812      51.482      43.560      34.600      25.720    
  17.891      11.890      8.0146      5.8522      4.5755      3.8894      3.6792      3.8892      4.5753      5.8521    
  8.0147      11.890      17.891      25.720      34.599      43.560      51.481      57.055      59.082      57.056    
  38.193      31.367      24.095      17.333      11.888      8.1751      5.9934      4.6635      3.8740      3.5225    
  3.5257      3.8770      4.6601      5.9901      8.1786      11.892      17.330      24.091      31.370      38.196    
  43.558      46.536      46.539      43.562      26.623      21.136      15.762      11.245      8.0113      5.9903    
  4.6914      3.8752      3.4482      3.3173      3.4481      3.8750      4.6913      5.9903      8.0115      11.245    
  15.762      21.136      26.623      31.370      34.596      35.740      34.596      31.371      17.390      13.507    
  10.104      7.5583      5.8528      4.6613      3.8731      3.4261      3.2296      3.2284      3.4249      3.8742    
  4.6624      5.8516      7.5572      10.105      13.507      17.389      21.137      24.094      25.721      25.720    
  24.093      21.138      11.017      8.7294      6.9230      5.5937      4.5791      3.8756      3.4478      3.2290    
  3.1631      3.2289      3.4477      3.8755      4.5790      5.5937      6.9229      8.7292      11.016      13.507    
  15.761      17.332      17.895      17.332      15.762      13.507      7.3827      6.2259      5.2505      4.4592    
  3.8895      3.5242      3.3187      3.2289      3.2290      3.3188      3.5240      3.8892      4.4594      5.2507    
  6.2255      7.3822      8.7293      10.105      11.244      11.890      11.890      11.244      10.105      8.7294    
  5.5272      4.8741      4.3333      3.9361      3.6760      3.5241      3.4481      3.4254      3.4481      3.5241    
  3.6760      3.9361      4.3333      4.8740      5.5272      6.2256      6.9233      7.5578      8.0115      8.1769    
  8.0115      7.5579      6.9234      6.2257      4.5208      4.2369      4.0439      3.9361      3.8892      3.8753    
  3.8735      3.8736      3.8755      3.8893      3.9362      4.0440      4.2369      4.5208      4.8740      5.2506    
  5.5937      5.8522      5.9918      5.9918      5.8521      5.5936      5.2505      4.8739      4.2008      4.2369    
  4.3332      4.4591      4.5785      4.6617      4.6913      4.6618      4.5787      4.4593      4.3333      4.2369    
  4.2008      4.2369      4.3333      4.4593      4.5787      4.6618      4.6913      4.6617      4.5785      4.4591    
  4.3332      4.2369      4.5208      4.8739      5.2505      5.5936      5.8521      5.9918      5.9918      5.8522    
  5.5937      5.2506      4.8740      4.5208      4.2369      4.0440      3.9362      3.8893      3.8755      3.8736    
  3.8735      3.8753      3.8892      3.9361      4.0439      4.2369      5.5272      6.2257      6.9234      7.5579    
  8.0115      8.1769      8.0115      7.5578      6.9233      6.2256      5.5272      4.8740      4.3333      3.9361    
  3.6760      3.5241      3.4481      3.4254      3.4481      3.5241      3.6760      3.9361      4.3333      4.8741    
  7.3827      8.7294      10.105      11.244      11.890      11.890      11.244      10.105      8.7293      7.3822    
  6.2255      5.2507      4.4594      3.8892      3.5240      3.3188      3.2290      3.2289      3.3187      3.5242    
  3.8895      4.4592      5.2505      6.2259      11.017      13.507      15.762      17.332      17.895      17.332    
  15.761      13.507      11.016      8.7292      6.9229      5.5937      4.5790      3.8755      3.4477      3.2289    
  3.1631      3.2290      3.4478      3.8756      4.5791      5.5937      6.9230      8.7294      17.390      21.138    
  24.093      25.720      25.721      24.094      21.137      17.389      13.507      10.105      7.5572      5.8516    
  4.6624      3.8742      3.4249      3.2284      3.2296      3.4261      3.8731      4.6613      5.8528      7.5583    
  10.104      13.507      26.623      31.371      34.596      35.740      34.596      31.370      26.623      21.136    
  15.762      11.245      8.0115      5.9903      4.6913      3.8750      3.4481      3.3173      3.4482      3.8752    
  4.6914      5.9903      8.0113      11.245      15.762      21.136      38.193      43.562      46.539      46.536    
  43.558      38.196      31.370      24.091      17.330      11.892      8.1786      5.9901      4.6601      3.8770    
  3.5257      3.5225      3.8740      4.6635      5.9934      8.1751      11.888      17.333      24.095      31.367    
  51.482      57.056      59.082      57.055      51.481      43.560      34.599      25.720      17.891      11.890    
  8.0147      5.8521      4.5753      3.8892      3.6792      3.8894      4.5755      5.8522      8.0146      11.890    
  17.891      25.720      34.600      43.560      65.768      70.812      70.817      65.773      57.052      46.535    
  35.745      25.723      17.329      11.241      7.5608      5.5965      4.4562      3.9331      3.9391      4.4622    
  5.5908      7.5548      11.247      17.335      25.717      35.739      46.541      57.059      79.487      82.718    
  79.486      70.819      59.078      46.533      34.596      24.098      15.762      10.100      6.9234      5.2554    
  4.3332      4.0390      4.3333      5.2556      6.9234      10.100      15.762      24.098      34.596      46.533    
  59.079      70.820      89.819      89.811      82.719      70.819      57.059      43.557      31.365      21.142    
  13.511      8.7256      6.2219      4.8778      4.2407      4.2330      4.8701      6.2297      8.7333      13.503    
  21.134      31.373      43.564      57.052      70.811      82.727      89.819      82.727      70.811      57.052    
  43.564      31.373      21.134      13.503      8.7333      6.2297      4.8701      4.2330      4.2407      4.8778    
  6.2219      8.7256      13.511      21.142      31.365      43.557      57.059      70.819      82.719      89.811    
  82.724      73.452      61.008      47.881      35.547      24.773      16.213      10.364      7.0642      5.3466    
  4.3982      4.0947      4.3982      5.3465      7.0641      10.364      16.213      24.773      35.547      47.881    
  61.007      73.451      82.723      86.197      70.812      61.011      49.428      37.807      27.197      18.350    
  11.869      7.8894      5.7863      4.5976      4.0419      4.0354      4.5910      5.7926      7.8957      11.862    
  18.343      27.204      37.813      49.421      61.004      70.818      76.574      76.568      57.052      47.886    
  37.814      28.055      19.513      12.912      8.5785      6.1597      4.7811      4.0325      3.8019      4.0323    
  4.7810      6.1596      8.5784      12.912      19.513      28.055      37.814      47.886      57.051      63.662    
  66.097      63.662      43.558      35.545      27.203      19.519      13.286      8.9602      6.4126      4.9347    
  4.0502      3.6531      3.6571      4.0541      4.9306      6.4085      8.9640      13.290      19.515      27.198    
  35.549      43.562      50.033      53.702      53.707      50.037      31.369      24.766      18.347      12.914    
  8.9622      6.4983      5.0125      4.0754      3.5800      3.4274      3.5800      4.0754      5.0124      6.4982    
  8.9620      12.914      18.346      24.766      31.369      37.186      41.218      42.665      41.218      37.186    
  21.139      16.212      11.865      8.5756      6.4114      5.0116      4.0812      3.5496      3.3151      3.3134    
  3.5480      4.0829      5.0133      6.4097      8.5738      11.866      16.214      21.137      25.904      29.702    
  31.812      31.810      29.700      25.906      13.508      10.369      7.8919      6.1597      4.9333      4.0735    
  3.5481      3.2794      3.1986      3.2794      3.5481      4.0735      4.9333      6.1597      7.8918      10.369    
  13.508      16.904      19.973      22.116      22.886      22.116      19.973      16.904      8.7296      7.0644    
  5.7893      4.7847      4.0524      3.5802      3.3140      3.1978      3.1982      3.3143      3.5797      4.0520    
  4.7851      5.7897      7.0639      8.7290      10.727      12.772      14.462      15.421      15.421      14.463    
  12.772      10.727      6.2258      5.3415      4.5943      4.0324      3.6551      3.4294      3.3142      3.2794    
  3.3141      3.4292      3.6550      4.0323      4.5943      5.3415      6.2257      7.2281      8.3249      9.3583    
  10.106      10.379      10.106      9.3586      8.3252      7.2283      4.8740      4.3982      4.0387      3.7981    
  3.6551      3.5801      3.5488      3.5488      3.5799      3.6550      3.7980      4.0386      4.3982      4.8740    
  5.4297      6.0004      6.5276      6.9545      7.1980      7.1980      6.9546      6.5278      6.0006      5.4298    
  4.2369      4.0998      4.0386      4.0324      4.0521      4.0735      4.0821      4.0735      4.0522      4.0324    
  4.0386      4.0998      4.2369      4.4505      4.7162      4.9912      5.2278      5.3863      5.4418      5.3862    
  5.2277      4.9911      4.7161      4.4504      4.2369      4.3981      4.5942      4.7847      4.9326      5.0124    
  5.0125      4.9327      4.7849      4.5943      4.3982      4.2369      4.1402      4.1159      4.1489      4.2099    
  4.2687      4.3033      4.3032      4.2685      4.2097      4.1487      4.1157      4.1401      4.8740      5.3413    
  5.7893      6.1596      6.4105      6.5002      6.4105      6.1597      5.7895      5.3414      4.8740      4.4505    
  4.1159      3.8855      3.7472      3.6749      3.6427      3.6337      3.6425      3.6746      3.7470      3.8853    
  4.1158      4.4505      6.2258      7.0641      7.8925      8.5746      8.9620      8.9619      8.5746      7.8925    
  7.0641      6.2256      5.4297      4.7162      4.1490      3.7472      3.4927      3.3505      3.2884      3.2882    
  3.3503      3.4926      3.7471      4.1488      4.7162      5.4298      8.7297      10.369      11.865      12.912    
  13.288      12.912      11.865      10.369      8.7294      7.2282      6.0003      4.9911      4.2101      3.6749    
  3.3502      3.1836      3.1333      3.1837      3.3503      3.6749      4.2102      4.9913      6.0004      7.2284    
  13.508      16.213      18.346      19.517      19.517      18.347      16.212      13.507      10.727      8.3252    
  6.5273      5.2274      4.2690      3.6430      3.2880      3.1328      3.1335      3.2888      3.6425      4.2685    
  5.2282      6.5281      8.3247      10.727      21.138      24.769      27.201      28.054      27.200      24.769    
  21.137      16.903      12.772      9.3592      6.9545      5.3853      4.3033      3.6346      3.2883      3.1827    
  3.2885      3.6349      4.3035      5.3854      6.9545      9.3590      12.772      16.903      31.368      35.548    
  37.811      37.809      35.546      31.370      25.906      19.973      14.461      10.107      7.1992      5.4407    
  4.3020      3.6436      3.3515      3.3493      3.6417      4.3047      5.4430      7.1966      10.104      14.463    
  19.975      25.904      43.558      47.886      49.427      47.886      43.558      37.184      29.703      22.116    
  15.418      10.379      7.2005      5.3862      4.2660      3.6746      3.4950      3.6749      4.2664      5.3864    
  7.2002      10.378      15.418      22.115      29.703      37.184      57.053      61.005      61.009      57.058    
  50.033      41.215      31.814      22.887      15.419      10.103      6.9570      5.2301      4.2073      3.7446    
  3.7495      4.2124      5.2255      6.9520      10.107      15.422      22.882      31.808      41.220      50.038    
  70.815      73.442      70.814      63.666      53.704      42.663      31.811      22.120      14.463      9.3542    
  6.5278      4.9954      4.1487      3.8810      4.1489      4.9955      6.5277      9.3538      14.462      22.119    
  31.811      42.663      53.704      63.666      82.727      82.720      76.567      66.097      53.708      41.214    
  29.697      19.977      12.776      8.3217      5.9971      4.7196      4.1193      4.1123      4.7127      6.0041    
  8.3285      12.768      19.970      29.704      41.221      53.701      66.090      76.575      89.821      86.202    
  76.566      63.662      50.041      37.184      25.900      16.904      10.732      7.2284      5.4244      4.4505    
  4.1455      4.4505      5.4244      7.2284      10.732      16.904      25.900      37.184      50.041      63.662    
  76.566      86.202      79.487      70.820      59.079      46.533      34.596      24.098      15.762      10.100    
  6.9234      5.2556      4.3333      4.0390      4.3332      5.2554      6.9234      10.100      15.762      24.098    
  34.596      46.533      59.078      70.819      79.486      82.718      70.812      61.011      49.428      37.807    
  27.197      18.350      11.869      7.8894      5.7863      4.5976      4.0419      4.0354      4.5910      5.7926    
  7.8957      11.862      18.343      27.204      37.813      49.421      61.004      70.818      76.574      76.568    
  59.075      49.425      38.933      28.858      20.074      13.271      8.7797      6.2680      4.8533      4.0828    
  3.8450      4.0827      4.8532      6.2678      8.7795      13.271      20.073      28.857      38.932      49.424    
  59.074      66.094      68.691      66.094      46.536      37.808      28.860      20.686      14.045      9.3958    
  6.6426      5.0805      4.1455      3.7236      3.7280      4.1500      5.0760      6.6379      9.3997      14.049    
  20.681      28.855      37.812      46.540      53.702      57.811      57.815      53.707      34.596      27.198    
  20.078      14.049      9.6222      6.8455      5.2238      4.2084      3.6671      3.4997      3.6673      4.2085    
  5.2237      6.8451      9.6216      14.049      20.077      27.198      34.596      41.220      45.882      47.572    
  45.882      41.220      24.094      18.345      13.270      9.3991      6.8489      5.2732      4.2384      3.6427    
  3.3788      3.3768      3.6408      4.2407      5.2753      6.8464      9.3965      13.272      18.348      24.092    
  29.700      34.221      36.760      36.758      34.219      29.702      15.763      11.865      8.7749      6.6404    
  5.2247      4.2394      3.6338      3.3237      3.2306      3.3239      3.6340      4.2396      5.2247      6.6403    
  8.7747      11.865      15.763      19.974      23.793      26.477      27.445      26.476      23.793      19.973    
  10.105      7.8929      6.2677      5.0780      4.2064      3.6419      3.3234      3.1845      3.1852      3.3241    
  3.6414      4.2059      5.0787      6.2683      7.8922      10.104      12.772      15.500      17.755      19.036    
  19.037      17.756      15.499      12.771      6.9234      5.7897      4.8572      4.1476      3.6671      3.3779    
  3.2297      3.1847      3.2296      3.3778      3.6670      4.1475      4.8573      5.7897      6.9234      8.3247    
  9.9085      11.413      12.502      12.901      12.502      11.413      9.9087      8.3248      5.2506      4.5944    
  4.0828      3.7258      3.5020      3.3779      3.3239      3.3237      3.3776      3.5018      3.7256      4.0827    
  4.5943      5.2506      6.0005      6.7955      7.5955      8.2717      8.6638      8.6639      8.2719      7.5959    
  6.7959      6.0006      4.3333      4.0387      3.8411      3.7258      3.6673      3.6419      3.6349      3.6417    
  3.6670      3.7256      3.8409      4.0386      4.3333      4.7162      5.1510      5.5811      5.9447      6.1928    
  6.2822      6.1930      5.9449      5.5813      5.1512      4.7162      4.0439      4.0386      4.0827      4.1477    
  4.2062      4.2396      4.2396      4.2062      4.1477      4.0827      4.0386      4.0440      4.1159      4.2509    
  4.4247      4.6005      4.7411      4.8186      4.8186      4.7410      4.6004      4.4246      4.2508      4.1158    
  4.3332      4.5942      4.8571      5.0782      5.2237      5.2743      5.2238      5.0783      4.8573      4.5944    
  4.3333      4.1159      3.9682      3.8931      3.8734      3.8829      3.8982      3.9048      3.8980      3.8826    
  3.8730      3.8928      3.9680      4.1157      5.2505      5.7893      6.2678      6.6401      6.8474      6.8475    
  6.6403      6.2680      5.7895      5.2506      4.7162      4.2509      3.8931      3.6485      3.4990      3.4180    
  3.3833      3.3832      3.4177      3.4986      3.6482      3.8929      4.2508      4.7161      6.9235      7.8925    
  8.7755      9.3975      9.6216      9.3975      8.7756      7.8926      6.9235      6.0005      5.1510      4.4247    
  3.8734      3.4990      3.2718      3.1544      3.1186      3.1543      3.2716      3.4988      3.8733      4.4247    
  5.1511      6.0006      10.105      11.866      13.271      14.046      14.047      13.271      11.865      10.105    
  8.3251      6.7957      5.5810      4.6003      3.8830      3.4182      3.1543      3.0383      3.0386      3.1545    
  3.4178      3.8828      4.6008      5.5815      6.7957      8.3250      15.762      18.347      20.077      20.683    
  20.077      18.347      15.762      12.771      9.9085      7.5960      5.9447      4.7405      3.8982      3.3839    
  3.1186      3.0379      3.1187      3.3841      3.8984      4.7408      5.9448      7.5962      9.9087      12.772    
  24.093      27.201      28.858      28.857      27.200      24.094      19.975      15.499      11.412      8.2724    
  6.1936      4.8179      3.9041      3.3839      3.1550      3.1537      3.3828      3.9059      4.8195      6.1921    
  8.2708      11.413      15.500      19.973      34.595      37.810      38.930      37.810      34.595      29.701    
  23.796      17.756      12.501      8.6638      6.2839      4.8186      3.8963      3.4177      3.2733      3.4180    
  3.8967      4.8188      6.2837      8.6632      12.500      17.755      23.795      29.701      46.536      49.422    
  49.426      46.539      41.216      34.219      26.478      19.038      12.899      8.6621      6.1948      4.7428    
  3.8808      3.4968      3.5005      3.8847      4.7395      6.1911      8.6650      12.902      19.033      26.474    
  34.222      41.220      59.078      61.004      59.078      53.708      45.882      36.756      27.444      19.040    
  12.502      8.2686      5.9449      4.6038      3.8730      3.6448      3.8733      4.6040      5.9448      8.2681    
  12.501      19.038      27.443      36.755      45.882      53.708      70.817      70.812      66.091      57.816    
  47.577      36.756      26.473      17.759      11.416      7.5930      5.5784      4.4275      3.8957      3.8900    
  4.4218      5.5843      7.5986      11.410      17.752      26.479      36.762      47.571      57.810      66.097    
  79.491      76.571      68.683      57.813      45.887      34.220      23.789      15.500      9.9134      6.7958    
  5.1465      4.2508      3.9727      4.2508      5.1465      6.7958      9.9134      15.500      23.789      34.220    
  45.887      57.813      68.683      76.571      82.727      76.575      66.090      53.701      41.221      29.704    
  19.970      12.768      8.3285      6.0041      4.7127      4.1123      4.1193      4.7196      5.9971      8.3217    
  12.776      19.977      29.697      41.214      53.708      66.097      76.567      82.720      65.768      57.059    
  46.541      35.739      25.717      17.335      11.247      7.5548      5.5908      4.4622      3.9391      3.9331    
  4.4562      5.5965      7.5608      11.241      17.329      25.723      35.745      46.535      57.052      65.773    
  70.817      70.812      57.052      47.886      37.814      28.055      19.513      12.912      8.5785      6.1597    
  4.7811      4.0325      3.8019      4.0323      4.7810      6.1596      8.5784      12.912      19.513      28.055    
  37.814      47.886      57.051      63.662      66.097      63.662      46.536      37.808      28.860      20.686    
  14.045      9.3958      6.6426      5.0805      4.1455      3.7236      3.7280      4.1500      5.0760      6.6379    
  9.3997      14.049      20.681      28.855      37.812      46.540      53.702      57.811      57.815      53.707    
  35.742      28.053      20.684      14.450      9.8579      6.9694      5.2974      4.2550      3.6976      3.5250    
  3.6978      4.2552      5.2973      6.9689      9.8570      14.449      20.683      28.052      35.742      42.670    
  47.574      49.357      47.574      42.669      25.721      19.516      14.046      9.8591      7.0920      5.4125    
  4.3228      3.6926      3.4128      3.4106      3.6906      4.3255      5.4148      7.0890      9.8559      14.048    
  19.518      25.719      31.810      36.761      39.558      39.555      36.758      31.812      17.333      12.912    
  9.3969      6.9718      5.4148      4.3491      3.6907      3.3533      3.2520      3.3537      3.6913      4.3495    
  5.4147      6.9715      9.3966      12.912      17.333      22.116      26.476      29.557      30.672      29.556    
  26.475      22.115      11.244      8.5752      6.6400      5.2969      4.3244      3.6923      3.3353      3.1799    
  3.1809      3.3366      3.6918      4.3239      5.2979      6.6408      8.5744      11.244      14.463      17.756    
  20.485      22.037      22.038      20.485      17.755      14.462      7.5577      6.1600      5.0783      4.2523    
  3.6914      3.3536      3.1804      3.1278      3.1804      3.3537      3.6916      4.2524      5.0784      6.1601    
  7.5579      9.3580      11.413      13.368      14.784      15.302      14.784      13.367      11.412      9.3578    
  5.5937      4.7850      4.1478      3.6975      3.4115      3.2510      3.1806      3.1804      3.2508      3.4115    
  3.6976      4.1476      4.7849      5.5938      6.5277      7.5954      8.7129      9.6704      10.228      10.228    
  9.6705      8.7133      7.5957      6.5277      4.4593      4.0325      3.7258      3.5274      3.4118      3.3537    
  3.3361      3.3535      3.4114      3.5271      3.7256      4.0324      4.4593      4.9912      5.5811      6.1621    
  6.6806      7.0536      7.1907      7.0539      6.6811      6.1626      5.5814      4.9913      3.9362      3.7981    
  3.7258      3.6978      3.6918      3.6924      3.6922      3.6916      3.6975      3.7256      3.7981      3.9362    
  4.1489      4.4247      4.7308      5.0210      5.2474      5.3712      5.3713      5.2476      5.0213      4.7310    
  4.4247      4.1489      3.9361      4.0324      4.1477      4.2527      4.3243      4.3495      4.3243      4.2527    
  4.1477      4.0324      3.9362      3.8855      3.8931      3.9528      4.0425      4.1332      4.1989      4.2227    
  4.1988      4.1331      4.0423      3.9526      3.8929      3.8853      4.4591      4.7848      5.0782      5.2973    
  5.4136      5.4137      5.2975      5.0784      4.7849      4.4593      4.1489      3.8930      3.7114      3.6013    
  3.5451      3.5213      3.5134      3.5133      3.5210      3.5447      3.6009      3.7111      3.8928      4.1487    
  5.5936      6.1596      6.6401      6.9714      7.0902      6.9715      6.6403      6.1598      5.5938      4.9912    
  4.4247      3.9528      3.6013      3.3653      3.2224      3.1480      3.1251      3.1478      3.2220      3.3649    
  3.6010      3.9526      4.4246      4.9911      7.5579      8.5747      9.3974      9.8570      9.8571      9.3977    
  8.5747      7.5578      6.5277      5.5812      4.7308      4.0424      3.5451      3.2225      3.0374      2.9549    
  2.9549      3.0372      3.2221      3.5449      4.0426      4.7310      5.5813      6.5277      11.244      12.912    
  14.046      14.446      14.047      12.913      11.244      9.3581      7.5955      6.1623      5.0210      4.1329    
  3.5213      3.1483      2.9549      2.8959      2.9549      3.1482      3.5213      4.1331      5.0214      6.1628    
  7.5958      9.3583      17.332      19.517      20.684      20.683      19.517      17.333      14.463      11.412    
  8.7126      6.6810      5.2477      4.1985      3.5130      3.1255      2.9552      2.9545      3.1249      3.5140    
  4.1995      5.2473      6.6806      8.7136      11.413      14.462      25.719      28.055      28.858      28.055    
  25.719      22.116      17.757      13.367      9.6693      7.0536      5.3722      4.2227      3.5123      3.1478    
  3.0381      3.1480      3.5127      4.2230      5.3724      7.0535      9.6691      13.367      17.757      22.116    
  35.740      37.809      37.811      35.743      31.810      26.476      20.486      14.785      10.227      7.1896    
  5.3725      4.2000      3.5199      3.2208      3.2233      3.5225      4.1980      5.3702      7.1915      10.228    
  14.782      20.483      26.478      31.812      46.538      47.883      46.538      42.670      36.760      29.554    
  22.038      15.305      10.228      7.0515      5.2476      4.1354      3.5447      3.3625      3.5450      4.1357    
  5.2477      7.0511      10.227      15.304      22.037      29.554      36.759      42.670      57.057      57.053    
  53.702      47.576      39.559      30.669      22.035      14.786      9.6727      6.6790      5.0192      4.0445    
  3.6031      3.5988      4.0404      5.0236      6.6831      9.6679      14.781      22.039      30.673      39.554    
  47.572      53.707      65.774      63.662      57.810      49.359      39.560      29.556      20.481      13.367    
  8.7169      6.1626      4.7273      3.9526      3.7147      3.9526      4.7273      6.1626      8.7169      13.367    
  20.481      29.556      39.560      49.359      57.810      63.662      70.817      66.097      57.810      47.571    
  36.762      26.479      17.752      11.410      7.5986      5.5843      4.4218      3.8900      3.8957      4.4275    
  5.5784      7.5930      11.416      17.759      26.473      36.756      47.577      57.816      66.091      70.812    
  70.815      63.666      53.704      42.663      31.811      22.119      14.462      9.3538      6.5277      4.9955    
  4.1489      3.8810      4.1487      4.9954      6.5278      9.3542      14.463      22.120      31.811      42.663    
  53.704      63.666      70.814      73.442      51.482      43.560      34.600      25.720      17.891      11.890    
  8.0146      5.8522      4.5755      3.8894      3.6792      3.8892      4.5753      5.8521      8.0147      11.890    
  17.891      25.720      34.599      43.560      51.481      57.055      59.082      57.056      43.558      35.545    
  27.203      19.519      13.286      8.9602      6.4126      4.9347      4.0502      3.6531      3.6571      4.0541    
  4.9306      6.4085      8.9640      13.290      19.515      27.198      35.549      43.562      50.033      53.702    
  53.707      50.037      34.596      27.198      20.078      14.049      9.6222      6.8455      5.2238      4.2084    
  3.6671      3.4997      3.6673      4.2085      5.2237      6.8451      9.6216      14.049      20.077      27.198    
  34.596      41.220      45.882      47.572      45.882      41.220      25.721      19.516      14.046      9.8591    
  7.0920      5.4125      4.3228      3.6926      3.4128      3.4106      3.6906      4.3255      5.4148      7.0890    
  9.8559      14.048      19.518      25.719      31.810      36.761      39.558      39.555      36.758      31.812    
  17.895      13.288      9.6211      7.0908      5.4806      4.3873      3.7106      3.3636      3.2595      3.3641    
  3.7113      4.3878      5.4805      7.0903      9.6206      13.288      17.896      22.885      27.443      30.671    
  31.842      30.671      27.442      22.884      11.890      8.9626      6.8473      5.4132      4.3878      3.7199    
  3.3427      3.1786      3.1799      3.3443      3.7196      4.3873      5.4142      6.8481      8.9618      11.890    
  15.422      19.037      22.038      23.749      23.749      22.037      19.035      15.420      8.0113      6.4109    