unknown system                          
   1.00000000000000     
     0.000000    1.950000    1.950000
     1.950000    0.000000    1.950000
     1.950000    1.950000    0.000000
   Pd
     1
Direct
  0.000000  0.000000  0.000000
 
   24   24   24
 0.93708152481E+02 0.89810598511E+02 0.79477738576E+02 0.65771480447E+02 0.51497050355E+02
 0.38205441183E+02 0.26628274927E+02 0.17397430806E+02 0.11025630701E+02 0.73842653299E+01
 0.55227332236E+01 0.45216851262E+01 0.42072493140E+01 0.45216851262E+01 0.55227332236E+01
 0.73842653299E+01 0.11025630701E+02 0.17397430806E+02 0.26628274927E+02 0.38205441183E+02
 0.51497050355E+02 0.65771480447E+02 0.79477738576E+02 0.89810598511E+02 0.89814466744E+02
 0.82723572736E+02 0.70810092981E+02 0.57055923359E+02 0.43573491667E+02 0.31384280183E+02
 0.21143216242E+02 0.13508775227E+02 0.87357292628E+01 0.62309613598E+01 0.48711448181E+01
 0.42338903932E+01 0.42416121030E+01 0.48788634803E+01 0.62232318216E+01 0.87279943725E+01
 0.13516479183E+02 0.21150920143E+02 0.31376557314E+02 0.43565792740E+02 0.57063661025E+02
 0.70817786292E+02 0.82715787389E+02 0.89806710263E+02 0.79483399834E+02 0.70818892325E+02
 0.59081949002E+02 0.46541080301E+02 0.34607484057E+02 0.24108325458E+02 0.15768767989E+02
 0.10103126265E+02 0.69250308947E+01 0.52566073243E+01 0.43341344681E+01 0.40398359678E+01
 0.43341489061E+01 0.52566262656E+01 0.69250403155E+01 0.10103115986E+02 0.15768738453E+02
 0.24108286005E+02 0.34607449366E+02 0.46541061773E+02 0.59081947989E+02 0.70818902688E+02
 0.79483409516E+02 0.82714724511E+02 0.65768557587E+02 0.57062714452E+02 0.46548934271E+02
 0.35749672449E+02 0.25727870780E+02 0.17342739354E+02 0.11250833287E+02 0.75567987239E+01
 0.55919658539E+01 0.44630723688E+01 0.39398323573E+01 0.39339992317E+01 0.44572646992E+01
 0.55978554779E+01 0.75626548770E+01 0.11244950144E+02 0.17336838016E+02 0.25733664832E+02
 0.35755467360E+02 0.46543060881E+02 0.57056911154E+02 0.65774501566E+02 0.70816894436E+02
 0.70810995199E+02 0.51488185000E+02 0.43569623434E+02 0.34610688153E+02 0.25730793639E+02
 0.17899182533E+02 0.11894824731E+02 0.80168818764E+01 0.58534819812E+01 0.45764072191E+01
 0.38901010786E+01 0.36799610915E+01 0.38901218548E+01 0.45764325032E+01 0.58534898679E+01
 0.80168592815E+01 0.11894777013E+02 0.17899131239E+02 0.25730766775E+02 0.34610701461E+02
 0.43569672519E+02 0.51488246672E+02 0.57059834013E+02 0.59085152086E+02 0.57059792792E+02
 0.38203832023E+02 0.31378802790E+02 0.24105003507E+02 0.17341425654E+02 0.11893215571E+02
 0.81776079977E+01 0.59947717121E+01 0.46644774083E+01 0.38747172737E+01 0.35232447273E+01
 0.35264657321E+01 0.38779361345E+01 0.46612540576E+01 0.59915488390E+01 0.81808133201E+01
 0.11896395722E+02 0.17338170401E+02 0.24101810581E+02 0.31382108610E+02 0.38207123042E+02
 0.43568063359E+02 0.46544374580E+02 0.46547602044E+02 0.43571270134E+02 0.26633936185E+02
 0.21145624770E+02 0.15768767989E+02 0.11249370133E+02 0.80136777797E+01 0.59917028468E+01
 0.46924090567E+01 0.38759735982E+01 0.34489509761E+01 0.33180783173E+01 0.34489735982E+01
 0.38760043558E+01 0.46924279845E+01 0.59916987694E+01 0.80136540936E+01 0.11249348644E+02
 0.15768769795E+02 0.21145664008E+02 0.26634005786E+02 0.31381959155E+02 0.34607497364E+02
 0.35751084796E+02 0.34607449366E+02 0.31381885252E+02 0.17398014847E+02 0.13512059420E+02
 0.10107473335E+02 0.75603056238E+01 0.58540660219E+01 0.46622842076E+01 0.38739298523E+01
 0.34268295015E+01 0.32303258580E+01 0.32292050537E+01 0.34257461615E+01 0.38751339498E+01
 0.46634404906E+01 0.58528930055E+01 0.75591473110E+01 0.10108642436E+02 0.13513228944E+02
 0.17396883301E+02 0.21146539673E+02 0.24104003782E+02 0.25731350816E+02 0.25730157932E+02
 0.24102770853E+02 0.21147635950E+02 0.11020364899E+02 0.87318610293E+01 0.69246354375E+01
 0.55948887131E+01 0.45800067729E+01 0.38763264338E+01 0.34485555190E+01 0.32297418173E+01
 0.31638575634E+01 0.32297528687E+01 0.34485728354E+01 0.38763448696E+01 0.45800199922E+01
 0.55949002953E+01 0.69246471197E+01 0.87318793912E+01 0.11020394155E+02 0.13512644903E+02
 0.15768374338E+02 0.17339779561E+02 0.17902730793E+02 0.17339760875E+02 0.15768342996E+02
 0.13512610950E+02 0.73843686738E+01 0.62271964702E+01 0.52515728695E+01 0.44600461658E+01
 0.38902044225E+01 0.35249572313E+01 0.33194346786E+01 0.32296857505E+01 0.32298562126E+01
 0.33195850811E+01 0.35247456157E+01 0.38900369566E+01 0.44602777980E+01 0.52517827394E+01
 0.62270029754E+01 0.73841847248E+01 0.87319827351E+01 0.10108161739E+02 0.11247785595E+02
 0.11894683218E+02 0.11894880357E+02 0.11247976347E+02 0.10107943753E+02 0.87317592620E+01
 0.55283944824E+01 0.48750417816E+01 0.43341344681E+01 0.39368807681E+01 0.36767569948E+01
 0.35248853021E+01 0.34489735982E+01 0.34263014722E+01 0.34489682925E+01 0.35248776896E+01
 0.36767500823E+01 0.39368786096E+01 0.43341383067E+01 0.48750470979E+01 0.55284022897E+01
 0.62270775893E+01 0.69250425769E+01 0.75597600817E+01 0.80136540936E+01 0.81791754300E+01
 0.80136551847E+01 0.75597607478E+01 0.69250403155E+01 0.62270713251E+01 0.45216941543E+01
 0.42377495985E+01 0.40447580505E+01 0.39369311190E+01 0.38901308830E+01 0.38763179463E+01
 0.38745356225E+01 0.38745589372E+01 0.38763538977E+01 0.38901312724E+01 0.39368983114E+01
 0.40447297835E+01 0.42377432220E+01 0.45216972824E+01 0.48750093398E+01 0.52516884236E+01
 0.55949093234E+01 0.58534680181E+01 0.59931494465E+01 0.59931670272E+01 0.58534988961E+01
 0.55949235906E+01 0.52516861266E+01 0.48750042750E+01 0.42016093296E+01 0.42377438696E+01
 0.43341276317E+01 0.44601875584E+01 0.45796578743E+01 0.46628632176E+01 0.46924067101E+01
 0.46628564498E+01 0.45796458094E+01 0.44601744541E+01 0.43341170323E+01 0.42377341939E+01
 0.42016000415E+01 0.42377341939E+01 0.43341170323E+01 0.44601744541E+01 0.45796458094E+01
 0.46628564498E+01 0.46924067101E+01 0.46628632176E+01 0.45796578743E+01 0.44601875584E+01
 0.43341276317E+01 0.42377438696E+01 0.45216941543E+01 0.48750042750E+01 0.52516861266E+01
 0.55949235906E+01 0.58534988961E+01 0.59931670272E+01 0.59931494465E+01 0.58534680181E+01
 0.55949093234E+01 0.52516884236E+01 0.48750093398E+01 0.45216972824E+01 0.42377432220E+01
 0.40447297835E+01 0.39368983114E+01 0.38901312724E+01 0.38763538977E+01 0.38745589372E+01
 0.38745356225E+01 0.38763179463E+01 0.38901308830E+01 0.39369311190E+01 0.40447580505E+01
 0.42377495985E+01 0.55283944824E+01 0.62270713251E+01 0.69250403155E+01 0.75597607478E+01
 0.80136551847E+01 0.81791754300E+01 0.80136540936E+01 0.75597600817E+01 0.69250425769E+01
 0.62270775893E+01 0.55284022897E+01 0.48750470979E+01 0.43341383067E+01 0.39368786096E+01
 0.36767500823E+01 0.35248776896E+01 0.34489682925E+01 0.34263014722E+01 0.34489735982E+01
 0.35248853021E+01 0.36767569948E+01 0.39368807681E+01 0.43341344681E+01 0.48750417816E+01
 0.73843686738E+01 0.87317592620E+01 0.10107943753E+02 0.11247976347E+02 0.11894880357E+02
 0.11894683218E+02 0.11247785595E+02 0.10108161739E+02 0.87319827351E+01 0.73841847248E+01
 0.62270029754E+01 0.52517827394E+01 0.44602777980E+01 0.38900369566E+01 0.35247456157E+01
 0.33195850811E+01 0.32298562126E+01 0.32296857505E+01 0.33194346786E+01 0.35249572313E+01
 0.38902044225E+01 0.44600461658E+01 0.52515728695E+01 0.62271964702E+01 0.11020364899E+02
 0.13512610950E+02 0.15768342996E+02 0.17339760875E+02 0.17902730793E+02 0.17339779561E+02
 0.15768374338E+02 0.13512644903E+02 0.11020394155E+02 0.87318793912E+01 0.69246471197E+01
 0.55949002953E+01 0.45800199922E+01 0.38763448696E+01 0.34485728354E+01 0.32297528687E+01
 0.31638575634E+01 0.32297418173E+01 0.34485555190E+01 0.38763264338E+01 0.45800067729E+01
 0.55948887131E+01 0.69246354375E+01 0.87318610293E+01 0.17398014847E+02 0.21147635950E+02
 0.24102770853E+02 0.25730157932E+02 0.25731350816E+02 0.24104003782E+02 0.21146539673E+02
 0.17396883301E+02 0.13513228944E+02 0.10108642436E+02 0.75591473110E+01 0.58528930055E+01
 0.46634404906E+01 0.38751339498E+01 0.34257461615E+01 0.32292050537E+01 0.32303258580E+01
 0.34268295015E+01 0.38739298523E+01 0.46622842076E+01 0.58540660219E+01 0.75603056238E+01
 0.10107473335E+02 0.13512059420E+02 0.26633936185E+02 0.31381885252E+02 0.34607449366E+02
 0.35751084796E+02 0.34607497364E+02 0.31381959155E+02 0.26634005786E+02 0.21145664008E+02
 0.15768769795E+02 0.11249348644E+02 0.80136540936E+01 0.59916987694E+01 0.46924279845E+01
 0.38760043558E+01 0.34489735982E+01 0.33180783173E+01 0.34489509761E+01 0.38759735982E+01
 0.46924090567E+01 0.59917028468E+01 0.80136777797E+01 0.11249370133E+02 0.15768767989E+02
 0.21145624770E+02 0.38203832023E+02 0.43571270134E+02 0.46547602044E+02 0.46544374580E+02
 0.43568063359E+02 0.38207123042E+02 0.31382108610E+02 0.24101810581E+02 0.17338170401E+02
 0.11896395722E+02 0.81808133201E+01 0.59915488390E+01 0.46612540576E+01 0.38779361345E+01
 0.35264657321E+01 0.35232447273E+01 0.38747172737E+01 0.46644774083E+01 0.59947717121E+01
 0.81776079977E+01 0.11893215571E+02 0.17341425654E+02 0.24105003507E+02 0.31378802790E+02
 0.51488185000E+02 0.57059792792E+02 0.59085152086E+02 0.57059834013E+02 0.51488246672E+02
 0.43569672519E+02 0.34610701461E+02 0.25730766775E+02 0.17899131239E+02 0.11894777013E+02
 0.80168592815E+01 0.58534898679E+01 0.45764325032E+01 0.38901218548E+01 0.36799610915E+01
 0.38901010786E+01 0.45764072191E+01 0.58534819812E+01 0.80168818764E+01 0.11894824731E+02
 0.17899182533E+02 0.25730793639E+02 0.34610688153E+02 0.43569623434E+02 0.65768557587E+02
 0.70810995199E+02 0.70816894436E+02 0.65774501566E+02 0.57056911154E+02 0.46543060881E+02
 0.35755467360E+02 0.25733664832E+02 0.17336838016E+02 0.11244950144E+02 0.75626548770E+01
 0.55978554779E+01 0.44572646992E+01 0.39339992317E+01 0.39398323573E+01 0.44630723688E+01
 0.55919658539E+01 0.75567987239E+01 0.11250833287E+02 0.17342739354E+02 0.25727870780E+02
 0.35749672449E+02 0.46548934271E+02 0.57062714452E+02 0.79483399834E+02 0.82714724511E+02
 0.79483409516E+02 0.70818902688E+02 0.59081947989E+02 0.46541061773E+02 0.34607449366E+02
 0.24108286005E+02 0.15768738453E+02 0.10103115986E+02 0.69250403155E+01 0.52566262656E+01
 0.43341489061E+01 0.40398359678E+01 0.43341344681E+01 0.52566073243E+01 0.69250308947E+01
 0.10103126265E+02 0.15768767989E+02 0.24108325458E+02 0.34607484057E+02 0.46541080301E+02
 0.59081949002E+02 0.70818892325E+02 0.89814466744E+02 0.89806710263E+02 0.82715787389E+02
 0.70817786292E+02 0.57063661025E+02 0.43565792740E+02 0.31376557314E+02 0.21150920143E+02
 0.13516479183E+02 0.87279943725E+01 0.62232318216E+01 0.48788634803E+01 0.42416121030E+01
 0.42338903932E+01 0.48711448181E+01 0.62309613598E+01 0.87357292628E+01 0.13508775227E+02
 0.21143216242E+02 0.31384280183E+02 0.43573491667E+02 0.57055923359E+02 0.70810092981E+02
 0.82723572736E+02 0.89814466744E+02 0.82723572736E+02 0.70810092981E+02 0.57055923359E+02
 0.43573491667E+02 0.31384280183E+02 0.21143216242E+02 0.13508775227E+02 0.87357292628E+01
 0.62309613598E+01 0.48711448181E+01 0.42338903932E+01 0.42416121030E+01 0.48788634803E+01
 0.62232318216E+01 0.87279943725E+01 0.13516479183E+02 0.21150920143E+02 0.31376557314E+02
 0.43565792740E+02 0.57063661025E+02 0.70817786292E+02 0.82715787389E+02 0.89806710263E+02
 0.82719740084E+02 0.73454047656E+02 0.61018027314E+02 0.47898510656E+02 0.35566691771E+02
 0.24789468297E+02 0.16223047914E+02 0.10368969521E+02 0.70663096018E+01 0.53478342743E+01
 0.43990515787E+01 0.40954310802E+01 0.43991182767E+01 0.53478477620E+01 0.70662400212E+01
 0.10368917657E+02 0.16223071211E+02 0.24789514851E+02 0.35566727161E+02 0.47898547074E+02
 0.61018032917E+02 0.73453972620E+02 0.82719641271E+02 0.86191025018E+02 0.70810753738E+02
 0.61021272267E+02 0.49448782749E+02 0.37832591128E+02 0.27220009148E+02 0.18364896282E+02
 0.11876332358E+02 0.78926302972E+01 0.57879625907E+01 0.45985614920E+01 0.40425790697E+01
 0.40361671382E+01 0.45921705435E+01 0.57944161368E+01 0.78990491047E+01 0.11869888214E+02
 0.18358499842E+02 0.27226510888E+02 0.37839066619E+02 0.49442345985E+02 0.61014826970E+02
 0.70817197281E+02 0.76566073280E+02 0.76559628903E+02 0.57056047300E+02 0.47903683451E+02
 0.37839551256E+02 0.28079936654E+02 0.19531734747E+02 0.12922409295E+02 0.85829828027E+01
 0.61619325251E+01 0.47824499266E+01 0.40332042923E+01 0.38024588094E+01 0.40331900797E+01
 0.47824827045E+01 0.61620070359E+01 0.85830268676E+01 0.12922410251E+02 0.19531752868E+02
 0.28079984237E+02 0.37839584573E+02 0.47903708482E+02 0.57056108309E+02 0.63654037453E+02
 0.66084475055E+02 0.63653966847E+02 0.43567632023E+02 0.35564688563E+02 0.27225216294E+02
 0.19537455030E+02 0.13296910160E+02 0.89655262876E+01 0.64152587100E+01 0.49362734962E+01
 0.40511313821E+01 0.36536973539E+01 0.36576692153E+01 0.40551065960E+01 0.49323202069E+01
 0.64113245692E+01 0.89695378727E+01 0.13300902785E+02 0.19533503169E+02 0.27221302105E+02
 0.35568748252E+02 0.43571667963E+02 0.50029054514E+02 0.53689095886E+02 0.53693074694E+02
 0.50033015857E+02 0.31380430254E+02 0.24782363031E+02 0.18361667432E+02 0.12924340782E+02
 0.89675125001E+01 0.65012098420E+01 0.50142954829E+01 0.40765424235E+01 0.35806789640E+01
 0.34278468327E+01 0.35806753422E+01 0.40765423185E+01 0.50142995054E+01 0.65012140687E+01
 0.89675284400E+01 0.12924383885E+02 0.18361731584E+02 0.24782423861E+02 0.31380471169E+02
 0.37187544313E+02 0.41208710770E+02 0.42651864426E+02 0.41208697249E+02 0.37187519610E+02
 0.21147929833E+02 0.16222209355E+02 0.11872270432E+02 0.85800971766E+01 0.64141046430E+01
 0.50134410601E+01 0.40823901429E+01 0.35503518961E+01 0.33155042488E+01 0.33138203268E+01
 0.35486807496E+01 0.40841013890E+01 0.50151413575E+01 0.64124169865E+01 0.85784194693E+01
 0.11873980150E+02 0.16223904950E+02 0.21146246691E+02 0.25908451311E+02 0.29698285829E+02
 0.31803026093E+02 0.31801291547E+02 0.29696510382E+02 0.25910091204E+02 0.13513268642E+02
 0.10374122897E+02 0.78952080292E+01 0.61619389981E+01 0.49349227277E+01 0.40745917123E+01
 0.35488553167E+01 0.32799097516E+01 0.31990232916E+01 0.32799339252E+01 0.35488916979E+01
 0.40746301822E+01 0.49349538350E+01 0.61619457297E+01 0.78951773311E+01 0.10374081865E+02
 0.13513262838E+02 0.16908271413E+02 0.19973395970E+02 0.22112017565E+02 0.22879805827E+02
 0.22111957898E+02 0.19973312978E+02 0.16908219305E+02 0.87320671850E+01 0.70664896663E+01
 0.57909601331E+01 0.47859749253E+01 0.40533289490E+01 0.35808760423E+01 0.33144488526E+01
 0.31981789174E+01 0.31985839515E+01 0.33148541795E+01 0.35804831684E+01 0.40529606309E+01
 0.47864193621E+01 0.57913681056E+01 0.70660510156E+01 0.87316516683E+01 0.10729369617E+02
 0.12773241554E+02 0.14461452607E+02 0.15418298950E+02 0.15418702175E+02 0.14461832417E+02
 0.12772779319E+02 0.10728919279E+02 0.62271146740E+01 0.53427624489E+01 0.45953216596E+01
 0.40330947421E+01 0.36556869779E+01 0.34298802736E+01 0.33146637638E+01 0.32798436875E+01
 0.33146606089E+01 0.34298618355E+01 0.36556762935E+01 0.40331304563E+01 0.45953773685E+01
 0.53427824751E+01 0.62271021075E+01 0.72295177868E+01 0.83259232072E+01 0.93585199575E+01
 0.10104876682E+02 0.10377798360E+02 0.10104872715E+02 0.93584896262E+01 0.83258830214E+01
 0.72295114387E+01 0.48750022225E+01 0.43990730425E+01 0.40393709708E+01 0.37987109496E+01
 0.36556592343E+01 0.35806810930E+01 0.35495345771E+01 0.35495260211E+01 0.35806826930E+01
 0.36556930869E+01 0.37987366442E+01 0.40393631344E+01 0.43990711301E+01 0.48750303156E+01
 0.54307621684E+01 0.60013390733E+01 0.65281483888E+01 0.69545927447E+01 0.71977226007E+01
 0.71976887918E+01 0.69545433891E+01 0.65281471750E+01 0.60013555229E+01 0.54307441141E+01
 0.42377495333E+01 0.41005874323E+01 0.40393810914E+01 0.40331955606E+01 0.40531217077E+01
 0.40745948072E+01 0.40832411631E+01 0.40746291901E+01 0.40531708481E+01 0.40332238992E+01
 0.40393651901E+01 0.41005517831E+01 0.42377363214E+01 0.44513863729E+01 0.47170344671E+01
 0.49918771136E+01 0.52282659518E+01 0.53865325674E+01 0.54420030253E+01 0.53865292052E+01
 0.52282726063E+01 0.49918894212E+01 0.47170317658E+01 0.44513763186E+01 0.42377585252E+01
 0.43991068287E+01 0.45953637414E+01 0.47862033489E+01 0.49343262738E+01 0.50143051806E+01
 0.50142817914E+01 0.49343052191E+01 0.47862278621E+01 0.45953794883E+01 0.43990674131E+01
 0.42377218652E+01 0.41409960033E+01 0.41167195660E+01 0.41496861862E+01 0.42106487273E+01
 0.42693302954E+01 0.43039033790E+01 0.43038842875E+01 0.42693256740E+01 0.42107051124E+01
 0.41497384494E+01 0.41167091762E+01 0.41409789416E+01 0.48750207786E+01 0.53426868324E+01
 0.57911769591E+01 0.61619912723E+01 0.64133182131E+01 0.65031584053E+01 0.64132611446E+01
 0.61619494072E+01 0.57911786490E+01 0.53426933708E+01 0.48750141892E+01 0.44513868044E+01
 0.41167215482E+01 0.38862562586E+01 0.37479824786E+01 0.36756919385E+01 0.36435162586E+01
 0.36346319466E+01 0.36435011150E+01 0.36757133959E+01 0.37480425985E+01 0.38862992553E+01
 0.41167247971E+01 0.44513855361E+01 0.62271367604E+01 0.70662229337E+01 0.78957979901E+01
 0.85793221876E+01 0.89675756071E+01 0.89674957161E+01 0.85792302811E+01 0.78958548631E+01
 0.70662983452E+01 0.62270805042E+01 0.54307191527E+01 0.47170755626E+01 0.41497376568E+01
 0.37479601892E+01 0.34934948821E+01 0.33514009437E+01 0.32894064585E+01 0.32893573664E+01
 0.33513706388E+01 0.34935887519E+01 0.37480347604E+01 0.41496705913E+01 0.47170142064E+01
 0.54307871298E+01 0.87320334968E+01 0.10374080829E+02 0.11872926677E+02 0.12922413458E+02
 0.13299098059E+02 0.12922443412E+02 0.11872944544E+02 0.10374078600E+02 0.87320420466E+01
 0.72296183279E+01 0.60011658149E+01 0.49918748401E+01 0.42108432856E+01 0.36756985507E+01
 0.33511845150E+01 0.31847161842E+01 0.31344420938E+01 0.31847605015E+01 0.33512114439E+01
 0.36756824966E+01 0.42108203371E+01 0.49918656132E+01 0.60011468742E+01 0.72295935991E+01
 0.13512950474E+02 0.16223392930E+02 0.18361372244E+02 0.19535144366E+02 0.19535834104E+02
 0.18362070612E+02 0.16222724834E+02 0.13512285212E+02 0.10729502985E+02 0.83262586583E+01
 0.65278241625E+01 0.52279225454E+01 0.42696551636E+01 0.36438475488E+01 0.32890344274E+01
 0.31339185733E+01 0.31345766838E+01 0.32896733168E+01 0.36431458887E+01 0.42689831222E+01
 0.52286064042E+01 0.65284765559E+01 0.83255319801E+01 0.10728785911E+02 0.21147071427E+02
 0.24785306174E+02 0.27223279729E+02 0.28079018176E+02 0.27223289637E+02 0.24785320451E+02
 0.21147099057E+02 0.16907325058E+02 0.12773046138E+02 0.93593831060E+01 0.69545847944E+01
 0.53855830000E+01 0.43038994620E+01 0.36355841994E+01 0.32893877743E+01 0.31838038495E+01
 0.32893361300E+01 0.36355159749E+01 0.43038688279E+01 0.53856108233E+01 0.69546321368E+01
 0.93593896370E+01 0.12773003735E+02 0.16907277262E+02 0.31379268233E+02 0.35567890715E+02
 0.37837007165E+02 0.37834696942E+02 0.35565591990E+02 0.31381619013E+02 0.25910453783E+02
 0.19972890742E+02 0.14460506214E+02 0.10106035806E+02 0.71988712455E+01 0.54408613291E+01
 0.43027420760E+01 0.36446596201E+01 0.33525622993E+01 0.33502450268E+01 0.36423242154E+01
 0.43050192400E+01 0.54431694622E+01 0.71966196530E+01 0.10103812843E+02 0.14462866302E+02
 0.19975183595E+02 0.25908088732E+02 0.43567169166E+02 0.47903698374E+02 0.49448039165E+02
 0.47903715647E+02 0.43567200681E+02 0.37185592032E+02 0.29699904883E+02 0.22112018257E+02
 0.15416026963E+02 0.10377887371E+02 0.72001703544E+01 0.53865308891E+01 0.42668578462E+01
 0.36757085372E+01 0.34960272222E+01 0.36756864541E+01 0.42668442089E+01 0.53865560096E+01
 0.72002410259E+01 0.10377984244E+02 0.15416119235E+02 0.22112073273E+02 0.29699909809E+02
 0.37185564372E+02 0.57057399655E+02 0.61015611880E+02 0.61020419639E+02 0.57062230092E+02
 0.50028652788E+02 0.41206307214E+02 0.31804566335E+02 0.22881558438E+02 0.15416102882E+02
 0.10102465773E+02 0.69569397955E+01 0.52306595892E+01 0.42082973196E+01 0.37456314946E+01
 0.37503834514E+01 0.42130272999E+01 0.52258737431E+01 0.69522268921E+01 0.10107355281E+02
 0.15420988728E+02 0.22876864023E+02 0.31799854702E+02 0.41211124773E+02 0.50033417583E+02
 0.70813936368E+02 0.73444540972E+02 0.70813954214E+02 0.63658281030E+02 0.53691081909E+02
 0.42649538044E+02 0.31802132192E+02 0.22116221281E+02 0.14461635444E+02 0.93541298035E+01
 0.65281276944E+01 0.49961498568E+01 0.41497331109E+01 0.38820285369E+01 0.41496894978E+01
 0.49961190931E+01 0.65281380603E+01 0.93541666657E+01 0.14461704366E+02 0.22116338307E+02
 0.31802258780E+02 0.42649597123E+02 0.53691061248E+02 0.63658241302E+02 0.82723161240E+02
 0.82716136245E+02 0.76559341801E+02 0.66084246734E+02 0.53694580957E+02 0.41205176196E+02
 0.29693840829E+02 0.19977467247E+02 0.12776495543E+02 0.83223731930E+01 0.59978321423E+01
 0.47205497560E+01 0.41202298277E+01 0.41132144592E+01 0.47135338415E+01 0.60048402099E+01
 0.83293733443E+01 0.12769485436E+02 0.19970511570E+02 0.29700948186E+02 0.41212245513E+02
 0.53687554664E+02 0.66077206099E+02 0.76566360382E+02 0.89815944908E+02 0.86196174410E+02
 0.76557462614E+02 0.63653974648E+02 0.50036406590E+02 0.37185565008E+02 0.25903850474E+02
 0.16908220633E+02 0.10734505479E+02 0.72295981926E+01 0.54253658178E+01 0.44513786386E+01
 0.41463694858E+01 0.44513786386E+01 0.54253658178E+01 0.72295981926E+01 0.10734505479E+02
 0.16908220633E+02 0.25903850474E+02 0.37185565008E+02 0.50036406590E+02 0.63653974648E+02
 0.76557462614E+02 0.86196174410E+02 0.79483399834E+02 0.70818892325E+02 0.59081949002E+02
 0.46541080301E+02 0.34607484057E+02 0.24108325458E+02 0.15768767989E+02 0.10103126265E+02
 0.69250308947E+01 0.52566073243E+01 0.43341344681E+01 0.40398359678E+01 0.43341489061E+01
 0.52566262656E+01 0.69250403155E+01 0.10103115986E+02 0.15768738453E+02 0.24108286005E+02
 0.34607449366E+02 0.46541061773E+02 0.59081947989E+02 0.70818902688E+02 0.79483409516E+02
 0.82714724511E+02 0.70810753738E+02 0.61021272267E+02 0.49448782749E+02 0.37832591128E+02
 0.27220009148E+02 0.18364896282E+02 0.11876332358E+02 0.78926302972E+01 0.57879625907E+01
 0.45985614920E+01 0.40425790697E+01 0.40361671382E+01 0.45921705435E+01 0.57944161368E+01
 0.78990491047E+01 0.11869888214E+02 0.18358499842E+02 0.27226510888E+02 0.37839066619E+02
 0.49442345985E+02 0.61014826970E+02 0.70817197281E+02 0.76566073280E+02 0.76559628903E+02
 0.59078033611E+02 0.49445566080E+02 0.38964112750E+02 0.28888965752E+02 0.20096440302E+02
 0.13283552465E+02 0.87851604794E+01 0.62706045721E+01 0.48547655179E+01 0.40835222990E+01
 0.38454980932E+01 0.40835299523E+01 0.48547848393E+01 0.62706405194E+01 0.87852160950E+01
 0.13283622969E+02 0.20096518439E+02 0.28889038315E+02 0.38964170992E+02 0.49445606596E+02
 0.59078055312E+02 0.66080730446E+02 0.68671749406E+02 0.66080720910E+02 0.46543794359E+02
 0.37833599936E+02 0.28891173612E+02 0.20711826770E+02 0.14060482965E+02 0.94031504814E+01
 0.66460894749E+01 0.50825167910E+01 0.41465653611E+01 0.37240309376E+01 0.37284278882E+01
 0.41509536734E+01 0.50781220720E+01 0.66417641710E+01 0.94076828013E+01 0.14064981753E+02
 0.20707459706E+02 0.28886815869E+02 0.37838095693E+02 0.46548273178E+02 0.53688879662E+02
 0.57782611771E+02 0.57787029073E+02 0.53693277335E+02 0.34607484057E+02 0.27220938912E+02
 0.20100355692E+02 0.14064977730E+02 0.96304030245E+01 0.68495918560E+01 0.52262692180E+01
 0.42097860495E+01 0.36677475890E+01 0.34999892833E+01 0.36677283083E+01 0.42097655077E+01
 0.52262734484E+01 0.68496370734E+01 0.96304880617E+01 0.14065079179E+02 0.20100444705E+02
 0.27220992284E+02 0.34607496620E+02 0.41211005407E+02 0.45853727298E+02 0.47535138180E+02
 0.45853741427E+02 0.41211017607E+02 0.24104475983E+02 0.18360607171E+02 0.13282480023E+02
 0.94064307843E+01 0.68529512031E+01 0.52759359856E+01 0.42400697097E+01 0.36435277164E+01
 0.33791061041E+01 0.33769681319E+01 0.36413750113E+01 0.42421617928E+01 0.52780255183E+01
 0.68508213668E+01 0.94043828536E+01 0.13284736124E+02 0.18362806811E+02 0.24102314581E+02
 0.29696299428E+02 0.34200435598E+02 0.36727201720E+02 0.36725082440E+02 0.34198353145E+02
 0.29698505818E+02 0.15769657889E+02 0.11873115690E+02 0.87803551888E+01 0.66438816146E+01
 0.52271591181E+01 0.42411421522E+01 0.36347596865E+01 0.33240807176E+01 0.32306274667E+01
 0.33240566499E+01 0.36347258362E+01 0.42411171082E+01 0.52271572620E+01 0.66439010807E+01
 0.87803819754E+01 0.11873131041E+02 0.15769646804E+02 0.19973992366E+02 0.23781946700E+02
 0.26454114633E+02 0.27417507517E+02 0.26454142780E+02 0.23781988730E+02 0.19974026381E+02
 0.10108361970E+02 0.78961607528E+01 0.62702907851E+01 0.50799951437E+01 0.42078129319E+01
 0.36427690609E+01 0.33237669306E+01 0.31846022513E+01 0.31852124176E+01 0.33243713229E+01
 0.36421557394E+01 0.42072211833E+01 0.50806338865E+01 0.62708922013E+01 0.78954973697E+01
 0.10107716410E+02 0.12773310530E+02 0.15495922925E+02 0.17744022564E+02 0.19019446571E+02
 0.19020071004E+02 0.17744643438E+02 0.15495291591E+02 0.12772686460E+02 0.69250308947E+01
 0.57913527743E+01 0.48586809085E+01 0.41485997065E+01 0.36677475890E+01 0.33782071765E+01
 0.32297375666E+01 0.31847251157E+01 0.32297462589E+01 0.33782212638E+01 0.36677625154E+01
 0.41486121904E+01 0.48586880060E+01 0.57913603639E+01 0.69250378786E+01 0.83256947822E+01
 0.99075447434E+01 0.11408554160E+02 0.12494623513E+02 0.12891740151E+02 0.12494615483E+02
 0.11408541088E+02 0.99075314728E+01 0.83256850184E+01 0.52516556862E+01 0.45953745435E+01
 0.40835520191E+01 0.37262090778E+01 0.35022464678E+01 0.33780702945E+01 0.33240863699E+01
 0.33240278158E+01 0.33780180287E+01 0.35023208642E+01 0.37262828497E+01 0.40835098144E+01
 0.45953465227E+01 0.52517614347E+01 0.60013931938E+01 0.67956748179E+01 0.75943509816E+01
 0.82689713706E+01 0.86598984241E+01 0.86598272183E+01 0.82688935934E+01 0.75944012326E+01
 0.67957200262E+01 0.60012956790E+01 0.43341378858E+01 0.40393624011E+01 0.38415792849E+01
 0.37262200278E+01 0.36677317261E+01 0.36424474538E+01 0.36356123185E+01 0.36424695264E+01
 0.36677659332E+01 0.37262531296E+01 0.38415999451E+01 0.40393712741E+01 0.43341417241E+01
 0.47170554595E+01 0.51516910282E+01 0.55812325370E+01 0.59439989839E+01 0.61914414717E+01
 0.62804454760E+01 0.61914205859E+01 0.59439655436E+01 0.55812007215E+01 0.51516720300E+01
 0.47170486524E+01 0.40447661206E+01 0.40393920416E+01 0.40835217174E+01 0.41487375783E+01
 0.42074868379E+01 0.42410975851E+01 0.42411088733E+01 0.42075267355E+01 0.41487939402E+01
 0.40835477693E+01 0.40393630392E+01 0.40447226130E+01 0.41167065249E+01 0.42517414127E+01
 0.44253483991E+01 0.46007612898E+01 0.47409862243E+01 0.48182325435E+01 0.48182157881E+01
 0.47409615199E+01 0.46007608383E+01 0.44253564783E+01 0.42517402986E+01 0.41167210352E+01
 0.43341489061E+01 0.45953977896E+01 0.48587002298E+01 0.50803193547E+01 0.52262734484E+01
 0.52769636533E+01 0.52262673619E+01 0.50803095219E+01 0.48586880060E+01 0.45953868203E+01
 0.43341383064E+01 0.41166877125E+01 0.39690401859E+01 0.38939296265E+01 0.38740916921E+01
 0.38834559889E+01 0.38986840027E+01 0.39053235278E+01 0.38987041382E+01 0.38834902860E+01
 0.38741298646E+01 0.38939645638E+01 0.39690671423E+01 0.41167044393E+01 0.52517061475E+01
 0.57911976683E+01 0.62706387195E+01 0.66439738312E+01 0.68519257779E+01 0.68518920094E+01
 0.66438992807E+01 0.62705802143E+01 0.57911886489E+01 0.52517299147E+01 0.47170536595E+01
 0.42517349778E+01 0.38939208488E+01 0.36493388554E+01 0.34998544692E+01 0.34189138841E+01
 0.33843376366E+01 0.33843592518E+01 0.34189657355E+01 0.34999116254E+01 0.36493900739E+01
 0.38939587542E+01 0.42517467335E+01 0.47170367451E+01 0.69251011481E+01 0.78958324361E+01
 0.87812398720E+01 0.94054749410E+01 0.96305488942E+01 0.94054552962E+01 0.87812110430E+01
 0.78958111567E+01 0.69250987111E+01 0.60013634738E+01 0.51516336134E+01 0.44253566340E+01
 0.38741525246E+01 0.34998562692E+01 0.32728378800E+01 0.31556196026E+01 0.31199745872E+01
 0.31556465836E+01 0.32728780693E+01 0.34998914746E+01 0.38741662329E+01 0.44253491402E+01
 0.51516146152E+01 0.60013469532E+01 0.10108191339E+02 0.11873258318E+02 0.13283469534E+02
 0.14062620457E+02 0.14062945710E+02 0.13283817117E+02 0.11872977606E+02 0.10107876761E+02
 0.83260217327E+01 0.67958579735E+01 0.55810791015E+01 0.46006160892E+01 0.38836200020E+01
 0.34190655196E+01 0.31554661671E+01 0.30396900175E+01 0.30399944177E+01 0.31557763392E+01
 0.34187721810E+01 0.38833085927E+01 0.46008822777E+01 0.55813351846E+01 0.67955368706E+01
 0.83257345684E+01 0.15768738453E+02 0.18362241310E+02 0.20100433830E+02 0.20709142766E+02
 0.20100444705E+02 0.18362259169E+02 0.15768756904E+02 0.12772471943E+02 0.99075447434E+01
 0.75949055019E+01 0.59439955661E+01 0.47404531893E+01 0.38986840027E+01 0.33848606369E+01
 0.31199137546E+01 0.30393161820E+01 0.31198952701E+01 0.33848301163E+01 0.38986504722E+01
 0.47404252176E+01 0.59439746309E+01 0.75948925179E+01 0.99075314728E+01 0.12772455932E+02
 0.24102644299E+02 0.27224014008E+02 0.28889758103E+02 0.28888303942E+02 0.27222559400E+02
 0.24104106812E+02 0.19974712154E+02 0.15494889350E+02 0.11407660857E+02 0.82696614386E+01
 0.61921612598E+01 0.48175045205E+01 0.39045931620E+01 0.33850808398E+01 0.31563663717E+01
 0.31549031156E+01 0.33835855279E+01 0.39059795484E+01 0.48189202930E+01 0.61907411489E+01
 0.82682748303E+01 0.11409144052E+02 0.15496325166E+02 0.19973232648E+02 0.34605756962E+02
 0.37835849951E+02 0.38961948005E+02 0.37835887833E+02 0.34605804216E+02 0.29697371871E+02
 0.23784529004E+02 0.17744336351E+02 0.12492931109E+02 0.86598687041E+01 0.62821412975E+01
 0.48182240229E+01 0.38970117344E+01 0.34189675355E+01 0.32746313056E+01 0.34189256165E+01
 0.38969580684E+01 0.48182005049E+01 0.62821774084E+01 0.86599622510E+01 0.12493048847E+02
 0.17744433889E+02 0.23784571034E+02 0.29697355640E+02 0.46544217140E+02 0.49443796103E+02
 0.49447373148E+02 0.46547831869E+02 0.41206951951E+02 0.34197596604E+02 0.26455881185E+02
 0.19021526909E+02 0.12890147114E+02 0.86580903871E+01 0.61931871371E+01 0.47427363060E+01
 0.38817343124E+01 0.34981432742E+01 0.35016580258E+01 0.38852285794E+01 0.47391834666E+01
 0.61896943858E+01 0.86617288023E+01 0.12893821546E+02 0.19018138667E+02 0.26452469565E+02