unknown system                          
   1.00000000000000     
     0.000000    1.950000    1.950000
     1.950000    0.000000    1.950000
     1.950000    1.950000    0.000000
   Pd
     1
Direct
  0.000000  0.000000  0.000000
 
   24   24   24
 0.93713171922E+02 0.89815350608E+02 0.79480912704E+02 0.65770675481E+02 0.51490682812E+02
 0.38194881295E+02 0.26617458869E+02 0.17389863322E+02 0.11021881116E+02 0.73825493500E+01
 0.55215484825E+01 0.45207514999E+01 0.42064217412E+01 0.45207514999E+01 0.55215484825E+01
 0.73825493500E+01 0.11021881116E+02 0.17389863322E+02 0.26617458869E+02 0.38194881295E+02
 0.51490682812E+02 0.65770675481E+02 0.79480912704E+02 0.89815350608E+02 0.89819233228E+02
 0.82727496708E+02 0.70811090994E+02 0.57051828194E+02 0.43564301406E+02 0.31372971612E+02
 0.21133794035E+02 0.13503286764E+02 0.87333005674E+01 0.62296638861E+01 0.48701491986E+01
 0.42330335732E+01 0.42407421434E+01 0.48778084044E+01 0.62218568291E+01 0.87256072581E+01
 0.13511221917E+02 0.21141790211E+02 0.31365420300E+02 0.43556603993E+02 0.57059432001E+02
 0.70818532052E+02 0.82719425347E+02 0.89811345309E+02 0.79486594736E+02 0.70819923831E+02
 0.59078735884E+02 0.46532893578E+02 0.34596295250E+02 0.24097851034E+02 0.15761773240E+02
 0.10099692836E+02 0.69234405377E+01 0.52555734909E+01 0.43332995443E+01 0.40389945193E+01
 0.43331745166E+01 0.52554359422E+01 0.69234407135E+01 0.10099915244E+02 0.15762169006E+02
 0.24098250269E+02 0.34596496158E+02 0.46532778481E+02 0.59078346342E+02 0.70819448777E+02
 0.79486274850E+02 0.82718357750E+02 0.65767740473E+02 0.57058645823E+02 0.46540778803E+02
 0.35738614824E+02 0.25716927612E+02 0.17334766939E+02 0.11246534346E+02 0.75548059232E+01
 0.55907879250E+01 0.44622325734E+01 0.39390828617E+01 0.39331228366E+01 0.44561751772E+01
 0.55965492261E+01 0.75607849597E+01 0.11241017732E+02 0.17329384114E+02 0.25723188086E+02
 0.35744549407E+02 0.46534602836E+02 0.57052287992E+02 0.65773206015E+02 0.70817433569E+02
 0.70811714424E+02 0.51481781922E+02 0.43560418786E+02 0.34599514107E+02 0.25719862620E+02
 0.17890847056E+02 0.11889985338E+02 0.80145679506E+01 0.58521843069E+01 0.45754899396E+01
 0.38893649629E+01 0.36792116555E+01 0.38891876094E+01 0.45752709636E+01 0.58521087594E+01
 0.80147497369E+01 0.11890386283E+02 0.17891286415E+02 0.25720114538E+02 0.34599437771E+02
 0.43560045184E+02 0.51481304823E+02 0.57055223000E+02 0.59081565200E+02 0.57055549381E+02
 0.38193263604E+02 0.31367471301E+02 0.24094518508E+02 0.17333449622E+02 0.11888367647E+02
 0.81751328176E+01 0.59933895037E+01 0.46635254362E+01 0.38739566636E+01 0.35225260158E+01
 0.35256617664E+01 0.38769573493E+01 0.46600851750E+01 0.59901445945E+01 0.81785882440E+01
 0.11891925563E+02 0.17330458682E+02 0.24091322697E+02 0.31370490729E+02 0.38196074552E+02
 0.43558427493E+02 0.46535920154E+02 0.46539346389E+02 0.43562104304E+02 0.26623140902E+02
 0.21136207632E+02 0.15761773240E+02 0.11245068361E+02 0.80113490934E+01 0.59903027894E+01
 0.46914213465E+01 0.38752065703E+01 0.34482485293E+01 0.33173286656E+01 0.34481116249E+01
 0.38750197655E+01 0.46913027638E+01 0.59903241642E+01 0.80114846856E+01 0.11245203216E+02
 0.15761768491E+02 0.21135985930E+02 0.26622741638E+02 0.31370342062E+02 0.34596218913E+02
 0.35740145375E+02 0.34596496158E+02 0.31370771943E+02 0.17390452117E+02 0.13506580590E+02
 0.10104054258E+02 0.75583297260E+01 0.58527731014E+01 0.46613189507E+01 0.38731487524E+01
 0.34261289461E+01 0.32296150714E+01 0.32284147462E+01 0.34248655835E+01 0.38741849977E+01
 0.46623850150E+01 0.58515839073E+01 0.75571806674E+01 0.10105157704E+02 0.13507498942E+02
 0.17388864838E+02 0.21136866158E+02 0.24093529182E+02 0.25720703332E+02 0.25719664283E+02
 0.24092711258E+02 0.21138496386E+02 0.11016598979E+02 0.87294179474E+01 0.69230406414E+01
 0.55937229334E+01 0.45791086931E+01 0.38755743546E+01 0.34478486330E+01 0.32290262769E+01
 0.31631003176E+01 0.32289424872E+01 0.34477234441E+01 0.38754631244E+01 0.45790398021E+01
 0.55936735711E+01 0.69229457313E+01 0.87292096256E+01 0.11016254762E+02 0.13506910147E+02
 0.15761368595E+02 0.17332076373E+02 0.17894905169E+02 0.17332319122E+02 0.15761769110E+02
 0.13507339297E+02 0.73826545192E+01 0.62258864353E+01 0.52505181048E+01 0.44591923959E+01
 0.38894701321E+01 0.35242488759E+01 0.33186925199E+01 0.32288983715E+01 0.32290476564E+01
 0.33187825448E+01 0.35239587191E+01 0.38892321451E+01 0.44593691450E+01 0.52506511881E+01
 0.62255456135E+01 0.73822406149E+01 0.87293147947E+01 0.10104674079E+02 0.11243629023E+02
 0.11890202703E+02 0.11890491452E+02 0.11244057909E+02 0.10104760292E+02 0.87293847090E+01
 0.55272305150E+01 0.48740617685E+01 0.43332995443E+01 0.39361179034E+01 0.36759927983E+01
 0.35240740253E+01 0.34481116249E+01 0.34254244280E+01 0.34481233404E+01 0.35240938382E+01
 0.36760135316E+01 0.39361295394E+01 0.43332912696E+01 0.48740253965E+01 0.55271643306E+01
 0.62256208327E+01 0.69233456276E+01 0.75577994118E+01 0.80114846856E+01 0.81769406030E+01
 0.80115308797E+01 0.75578799014E+01 0.69234407135E+01 0.62257094992E+01 0.45207602504E+01
 0.42369074427E+01 0.40439359857E+01 0.39360665954E+01 0.38891963599E+01 0.38753309078E+01
 0.38735419916E+01 0.38736049537E+01 0.38754718750E+01 0.38893285637E+01 0.39361507388E+01
 0.40439846708E+01 0.42369400330E+01 0.45207922806E+01 0.48739866960E+01 0.52505547695E+01
 0.55936823216E+01 0.58521639513E+01 0.59917844371E+01 0.59917710359E+01 0.58521175099E+01
 0.55936054672E+01 0.52504769747E+01 0.48739345349E+01 0.42007608677E+01 0.42368595234E+01
 0.43331533576E+01 0.44591101856E+01 0.45785109797E+01 0.46617028659E+01 0.46912816048E+01
 0.46617962205E+01 0.45786610647E+01 0.44592639759E+01 0.43332701106E+01 0.42369312825E+01
 0.42008130048E+01 0.42369312825E+01 0.43332701106E+01 0.44592639759E+01 0.45786610647E+01
 0.46617962205E+01 0.46912816048E+01 0.46617028659E+01 0.45785109797E+01 0.44591101856E+01
 0.43331533576E+01 0.42368595234E+01 0.45207602504E+01 0.48739345349E+01 0.52504769747E+01
 0.55936054672E+01 0.58521175099E+01 0.59917710359E+01 0.59917844371E+01 0.58521639513E+01
 0.55936823216E+01 0.52505547695E+01 0.48739866960E+01 0.45207922806E+01 0.42369400330E+01
 0.40439846708E+01 0.39361507388E+01 0.38893285637E+01 0.38754718750E+01 0.38736049537E+01
 0.38735419916E+01 0.38753309078E+01 0.38891963599E+01 0.39360665954E+01 0.40439359857E+01
 0.42369074427E+01 0.55272305150E+01 0.62257094992E+01 0.69234407135E+01 0.75578799014E+01
 0.80115308797E+01 0.81769406030E+01 0.80114846856E+01 0.75577994118E+01 0.69233456276E+01
 0.62256208327E+01 0.55271643306E+01 0.48740253965E+01 0.43332912696E+01 0.39361295394E+01
 0.36760135316E+01 0.35240938382E+01 0.34481233404E+01 0.34254244280E+01 0.34481116249E+01
 0.35240740253E+01 0.36759927983E+01 0.39361179034E+01 0.43332995443E+01 0.48740617685E+01
 0.73826545192E+01 0.87293847090E+01 0.10104760292E+02 0.11244057909E+02 0.11890491452E+02
 0.11890202703E+02 0.11243629023E+02 0.10104674079E+02 0.87293147947E+01 0.73822406149E+01
 0.62255456135E+01 0.52506511881E+01 0.44593691450E+01 0.38892321451E+01 0.35239587191E+01
 0.33187825448E+01 0.32290476564E+01 0.32288983715E+01 0.33186925199E+01 0.35242488759E+01
 0.38894701321E+01 0.44591923959E+01 0.52505181048E+01 0.62258864353E+01 0.11016598979E+02
 0.13507339297E+02 0.15761769110E+02 0.17332319122E+02 0.17894905169E+02 0.17332076373E+02
 0.15761368595E+02 0.13506910147E+02 0.11016254762E+02 0.87292096256E+01 0.69229457313E+01
 0.55936735711E+01 0.45790398021E+01 0.38754631244E+01 0.34477234441E+01 0.32289424872E+01
 0.31631003176E+01 0.32290262769E+01 0.34478486330E+01 0.38755743546E+01 0.45791086931E+01
 0.55937229334E+01 0.69230406414E+01 0.87294179474E+01 0.17390452117E+02 0.21138496386E+02
 0.24092711258E+02 0.25719664283E+02 0.25720703332E+02 0.24093529182E+02 0.21136866158E+02
 0.17388864838E+02 0.13507498942E+02 0.10105157704E+02 0.75571806674E+01 0.58515839073E+01
 0.46623850150E+01 0.38741849977E+01 0.34248655835E+01 0.32284147462E+01 0.32296150714E+01
 0.34261289461E+01 0.38731487524E+01 0.46613189507E+01 0.58527731014E+01 0.75583297260E+01
 0.10104054258E+02 0.13506580590E+02 0.26623140902E+02 0.31370771943E+02 0.34596496158E+02
 0.35740145375E+02 0.34596218913E+02 0.31370342062E+02 0.26622741638E+02 0.21135985930E+02
 0.15761768491E+02 0.11245203216E+02 0.80114846856E+01 0.59903241642E+01 0.46913027638E+01
 0.38750197655E+01 0.34481116249E+01 0.33173286656E+01 0.34482485293E+01 0.38752065703E+01
 0.46914213465E+01 0.59903027894E+01 0.80113490934E+01 0.11245068361E+02 0.15761773240E+02
 0.21136207632E+02 0.38193263604E+02 0.43562104304E+02 0.46539346389E+02 0.46535920154E+02
 0.43558427493E+02 0.38196074552E+02 0.31370490729E+02 0.24091322697E+02 0.17330458682E+02
 0.11891925563E+02 0.81785882440E+01 0.59901445945E+01 0.46600851750E+01 0.38769573493E+01
 0.35256617664E+01 0.35225260158E+01 0.38739566636E+01 0.46635254362E+01 0.59933895037E+01
 0.81751328176E+01 0.11888367647E+02 0.17333449622E+02 0.24094518508E+02 0.31367471301E+02
 0.51481781922E+02 0.57055549381E+02 0.59081565200E+02 0.57055223000E+02 0.51481304823E+02
 0.43560045184E+02 0.34599437771E+02 0.25720114538E+02 0.17891286415E+02 0.11890386283E+02
 0.80147497369E+01 0.58521087594E+01 0.45752709636E+01 0.38891876094E+01 0.36792116555E+01
 0.38893649629E+01 0.45754899396E+01 0.58521843069E+01 0.80145679506E+01 0.11889985338E+02
 0.17890847056E+02 0.25719862620E+02 0.34599514107E+02 0.43560418786E+02 0.65767740473E+02
 0.70811714424E+02 0.70817433569E+02 0.65773206015E+02 0.57052287992E+02 0.46534602836E+02
 0.35744549407E+02 0.25723188086E+02 0.17329384114E+02 0.11241017732E+02 0.75607849597E+01
 0.55965492261E+01 0.44561751772E+01 0.39331228366E+01 0.39390828617E+01 0.44622325734E+01
 0.55907879250E+01 0.75548059232E+01 0.11246534346E+02 0.17334766939E+02 0.25716927612E+02
 0.35738614824E+02 0.46540778803E+02 0.57058645823E+02 0.79486594736E+02 0.82718357750E+02
 0.79486274850E+02 0.70819448777E+02 0.59078346342E+02 0.46532778481E+02 0.34596496158E+02
 0.24098250269E+02 0.15762169006E+02 0.10099915244E+02 0.69234407135E+01 0.52554359422E+01
 0.43331745166E+01 0.40389945193E+01 0.43332995443E+01 0.52555734909E+01 0.69234405377E+01
 0.10099692836E+02 0.15761773240E+02 0.24097851034E+02 0.34596295250E+02 0.46532893578E+02
 0.59078735884E+02 0.70819923831E+02 0.89819233228E+02 0.89811345309E+02 0.82719425347E+02
 0.70818532052E+02 0.57059432001E+02 0.43556603993E+02 0.31365420300E+02 0.21141790211E+02
 0.13511221917E+02 0.87256072581E+01 0.62218568291E+01 0.48778084044E+01 0.42407421434E+01
 0.42330335732E+01 0.48701491986E+01 0.62296638861E+01 0.87333005674E+01 0.13503286764E+02
 0.21133794035E+02 0.31372971612E+02 0.43564301406E+02 0.57051828194E+02 0.70811090994E+02
 0.82727496708E+02 0.89819233228E+02 0.82727496708E+02 0.70811090994E+02 0.57051828194E+02
 0.43564301406E+02 0.31372971612E+02 0.21133794035E+02 0.13503286764E+02 0.87333005674E+01
 0.62296638861E+01 0.48701491986E+01 0.42330335732E+01 0.42407421434E+01 0.48778084044E+01
 0.62218568291E+01 0.87256072581E+01 0.13511221917E+02 0.21141790211E+02 0.31365420300E+02
 0.43556603993E+02 0.57059432001E+02 0.70818532052E+02 0.82719425347E+02 0.89811345309E+02
 0.82723649689E+02 0.73451821990E+02 0.61007569531E+02 0.47881149344E+02 0.35547075578E+02
 0.24773073033E+02 0.16212856560E+02 0.10364201233E+02 0.70642320263E+01 0.53466193516E+01
 0.43982075688E+01 0.40946503531E+01 0.43981505651E+01 0.53464816688E+01 0.70641103853E+01
 0.10364265734E+02 0.16213116488E+02 0.24773327837E+02 0.35547119374E+02 0.47880908324E+02
 0.61007071448E+02 0.73451205583E+02 0.82723203350E+02 0.86197026347E+02 0.70811752892E+02
 0.61010827751E+02 0.49428019849E+02 0.37807303361E+02 0.27197479398E+02 0.18349808902E+02
 0.11868708032E+02 0.78893613452E+01 0.57862626445E+01 0.45975770179E+01 0.40419127807E+01
 0.40353997529E+01 0.45909817018E+01 0.57925683437E+01 0.78957271256E+01 0.11862260958E+02
 0.18343418847E+02 0.27203905073E+02 0.37813458346E+02 0.49420970855E+02 0.61003676922E+02
 0.70817676125E+02 0.76574193855E+02 0.76567932907E+02 0.57051949672E+02 0.47886342100E+02
 0.37814293594E+02 0.28054982234E+02 0.19513437681E+02 0.12912304223E+02 0.85784791814E+01
 0.61597100540E+01 0.47811441318E+01 0.40324682939E+01 0.38018976258E+01 0.40323463857E+01
 0.47810053407E+01 0.61596063279E+01 0.85783650005E+01 0.12912140406E+02 0.19513214209E+02
 0.28054645019E+02 0.37813787804E+02 0.47885747299E+02 0.57051457014E+02 0.63661811381E+02
 0.66097398483E+02 0.63662068945E+02 0.43558417163E+02 0.35545062169E+02 0.27202710008E+02
 0.19519185002E+02 0.13285816984E+02 0.89601635143E+01 0.64125958474E+01 0.49346764195E+01
 0.40502012776E+01 0.36531426548E+01 0.36571105413E+01 0.40541254457E+01 0.49305847227E+01
 0.64084750587E+01 0.89639711722E+01 0.13289535697E+02 0.19514841408E+02 0.27198340986E+02
 0.35548689184E+02 0.43562067726E+02 0.50032935632E+02 0.53702413552E+02 0.53706513516E+02
 0.50037199232E+02 0.31369107283E+02 0.24765936074E+02 0.18346566803E+02 0.12914247430E+02
 0.89621599000E+01 0.64983471955E+01 0.50124799379E+01 0.40754359537E+01 0.35800409027E+01
 0.34273855573E+01 0.35800457552E+01 0.40754311717E+01 0.50124325862E+01 0.64982259485E+01
 0.89619659573E+01 0.12914011801E+02 0.18346319047E+02 0.24765693806E+02 0.31368892965E+02
 0.37186302539E+02 0.41217764688E+02 0.42665241020E+02 0.41217844151E+02 0.37186458844E+02
 0.21138528343E+02 0.16212011621E+02 0.11864626499E+02 0.85755830703E+01 0.64114378980E+01
 0.50116191210E+01 0.40811793933E+01 0.35496193537E+01 0.33150550879E+01 0.33133729698E+01
 0.35479684316E+01 0.40829315386E+01 0.50133249694E+01 0.64096731799E+01 0.85737642495E+01
 0.11866166888E+02 0.16213511451E+02 0.21136627718E+02 0.25904122153E+02 0.29701623759E+02
 0.31811987504E+02 0.31810279384E+02 0.29699948077E+02 0.25905945452E+02 0.13507800952E+02
 0.10369374522E+02 0.78919459136E+01 0.61597165431E+01 0.49333218502E+01 0.40734734778E+01
 0.35481099947E+01 0.32794336871E+01 0.31986461004E+01 0.32794467871E+01 0.35481331646E+01
 0.40735051446E+01 0.49333491151E+01 0.61597008372E+01 0.78918456835E+01 0.10369189672E+02
 0.13507580206E+02 0.16904072294E+02 0.19973032165E+02 0.22115874103E+02 0.22885541943E+02
 0.22115947527E+02 0.19973174387E+02 0.16904270810E+02 0.87296270488E+01 0.70644149991E+01
 0.57892704703E+01 0.47846830361E+01 0.40524120016E+01 0.35802409178E+01 0.33139903963E+01
 0.31977923972E+01 0.31981625845E+01 0.33143017618E+01 0.35797332667E+01 0.40519647240E+01
 0.47851042555E+01 0.57896559552E+01 0.70638808063E+01 0.87290049309E+01 0.10726827548E+02
 0.12771957028E+02 0.14462251071E+02 0.15420774473E+02 0.15421286900E+02 0.14462908915E+02
 0.12771832216E+02 0.10726679426E+02 0.62258028287E+01 0.53415299232E+01 0.45943239004E+01
 0.40323563676E+01 0.36551424820E+01 0.34294330879E+01 0.33142227649E+01 0.32793542196E+01
 0.33141052859E+01 0.34292385191E+01 0.36549680705E+01 0.40322866426E+01 0.45943285318E+01
 0.53414935727E+01 0.62256565087E+01 0.72281096513E+01 0.83248991709E+01 0.93583021780E+01
 0.10105573029E+02 0.10378965712E+02 0.10105765538E+02 0.93585880970E+01 0.83251845646E+01
 0.72283466477E+01 0.48740202266E+01 0.43982297920E+01 0.40386921759E+01 0.37981321507E+01
 0.36550895884E+01 0.35800522535E+01 0.35488293597E+01 0.35487731371E+01 0.35799349978E+01
 0.36549856476E+01 0.37980490913E+01 0.40386213601E+01 0.43981967293E+01 0.48740107940E+01
 0.54296988911E+01 0.60004368564E+01 0.65276178594E+01 0.69545326191E+01 0.71980228574E+01
 0.71980445711E+01 0.69546301254E+01 0.65278006149E+01 0.60006096094E+01 0.54297717152E+01
 0.42369067582E+01 0.40998266472E+01 0.40386272897E+01 0.40323518730E+01 0.40521300304E+01
 0.40734719275E+01 0.40820652817E+01 0.40735041428E+01 0.40521775435E+01 0.40323824465E+01
 0.40386245145E+01 0.40998183650E+01 0.42369339364E+01 0.44505111446E+01 0.47161693504E+01
 0.49911505908E+01 0.52277725540E+01 0.53862577436E+01 0.54418095040E+01 0.53862290110E+01
 0.52277336640E+01 0.49911043740E+01 0.47161067201E+01 0.44504488808E+01 0.42368741000E+01
 0.43981390129E+01 0.45941882311E+01 0.47847429262E+01 0.49326009221E+01 0.50124381870E+01
 0.50124591574E+01 0.49326942067E+01 0.47849097309E+01 0.45943305446E+01 0.43981938537E+01
 0.42369199128E+01 0.41401988508E+01 0.41159159784E+01 0.41489085558E+01 0.42099366215E+01
 0.42686867652E+01 0.43032742271E+01 0.43031837634E+01 0.42684924800E+01 0.42097487638E+01
 0.41487329866E+01 0.41157357314E+01 0.41400713420E+01 0.48739513449E+01 0.53413003358E+01
 0.57893158889E+01 0.61595910108E+01 0.64104789200E+01 0.65001815744E+01 0.64105237045E+01
 0.61597050081E+01 0.57894636082E+01 0.53414016680E+01 0.48739938908E+01 0.44505120359E+01
 0.41159180803E+01 0.38854834469E+01 0.37472099234E+01 0.36748887627E+01 0.36426503184E+01
 0.36336798348E+01 0.36424650423E+01 0.36746341228E+01 0.37469837430E+01 0.38853088095E+01
 0.41158023799E+01 0.44504585661E+01 0.62257770830E+01 0.70640924044E+01 0.78924618333E+01
 0.85746443787E+01 0.89619996284E+01 0.89619323295E+01 0.85745804900E+01 0.78925305376E+01
 0.70641320358E+01 0.62256340382E+01 0.54296542036E+01 0.47162110184E+01 0.41489608755E+01
 0.37471867574E+01 0.34926560042E+01 0.33504562739E+01 0.32883556204E+01 0.32882420002E+01
 0.33502646370E+01 0.34925640892E+01 0.37471230930E+01 0.41488467499E+01 0.47161914762E+01
 0.54298164028E+01 0.87296633885E+01 0.10369448880E+02 0.11865310064E+02 0.12912143609E+02
 0.13287723407E+02 0.12912059630E+02 0.11865122312E+02 0.10369186386E+02 0.87294008733E+01
 0.72282125876E+01 0.60002617588E+01 0.49911483067E+01 0.42101337072E+01 0.36748949460E+01
 0.33502363323E+01 0.31836442171E+01 0.31333203920E+01 0.31836830719E+01 0.33502626528E+01
 0.36749023208E+01 0.42101784101E+01 0.49912653651E+01 0.60004354684E+01 0.72284311512E+01
 0.13507681943E+02 0.16213441339E+02 0.18346301403E+02 0.19516619435E+02 0.19517185677E+02
 0.18346661239E+02 0.16212321916E+02 0.13506593077E+02 0.10726961092E+02 0.83252377517E+01
 0.65272912998E+01 0.52274263702E+01 0.42690148344E+01 0.36429847237E+01 0.32879795625E+01
 0.31327911319E+01 0.31335208360E+01 0.32887908029E+01 0.36424784631E+01 0.42685091953E+01
 0.52282445932E+01 0.65280722908E+01 0.83246916179E+01 0.10726545881E+02 0.21137927124E+02
 0.24769105813E+02 0.27200660671E+02 0.28053672369E+02 0.27200338721E+02 0.24768608741E+02
 0.21137486488E+02 0.16903119401E+02 0.12771758711E+02 0.93591695826E+01 0.69545239269E+01
 0.53853016036E+01 0.43032704193E+01 0.36346391440E+01 0.32882733179E+01 0.31827198139E+01
 0.32884504890E+01 0.36349034509E+01 0.43034999216E+01 0.53854007143E+01 0.69544652520E+01
 0.93590322862E+01 0.12771715725E+02 0.16903322188E+02 0.31368139191E+02 0.35548289359E+02
 0.37811392064E+02 0.37808876917E+02 0.35545516302E+02 0.31370047228E+02 0.25906137404E+02
 0.19972526948E+02 0.14461301242E+02 0.10106738614E+02 0.71991771807E+01 0.54406610666E+01
 0.43020350638E+01 0.36436299982E+01 0.33514636478E+01 0.33492924335E+01 0.36416534778E+01
 0.43046567505E+01 0.54430274934E+01 0.71965816013E+01 0.10103926081E+02 0.14463131165E+02
 0.19974593134E+02 0.25903930201E+02 0.43557983075E+02 0.47886079581E+02 0.49426689015E+02
 0.47885754465E+02 0.43557578534E+02 0.37184338546E+02 0.29703248181E+02 0.22115874780E+02
 0.15418493708E+02 0.10379057109E+02 0.72005386356E+01 0.53862306901E+01 0.42660128343E+01
 0.36746288255E+01 0.34950133882E+01 0.36749062840E+01 0.42663616753E+01 0.53863524963E+01
 0.72002211183E+01 0.10378315628E+02 0.15417578101E+02 0.22115133643E+02 0.29702939052E+02
 0.37184491854E+02 0.57053146098E+02 0.61004640271E+02 0.61009292982E+02 0.57057605765E+02
 0.50032533972E+02 0.41215351028E+02 0.31813531568E+02 0.22887298291E+02 0.15418674516E+02
 0.10103348461E+02 0.69570374454E+01 0.52301311137E+01 0.42073309043E+01 0.37445624885E+01
 0.37494810039E+01 0.42123928781E+01 0.52254986645E+01 0.69520498683E+01 0.10107485078E+02
 0.15422469447E+02 0.22881501976E+02 0.31808106504E+02 0.41220042801E+02 0.50037600893E+02
 0.70814667734E+02 0.73441737267E+02 0.70814419803E+02 0.63666071650E+02 0.53704409749E+02
 0.42662909663E+02 0.31811126424E+02 0.22120227658E+02 0.14462709013E+02 0.93542092095E+01
 0.65277803870E+01 0.49953815271E+01 0.41487277324E+01 0.38810218266E+01 0.41488665602E+01
 0.49955355295E+01 0.65277306442E+01 0.93537859941E+01 0.14461962806E+02 0.22119415373E+02
 0.31810520700E+02 0.42662652300E+02 0.53704495303E+02 0.63666360126E+02 0.82726826734E+02
 0.82719685144E+02 0.76567435955E+02 0.66097166484E+02 0.53708022716E+02 0.41214309902E+02
 0.29697271710E+02 0.19977348248E+02 0.12775564563E+02 0.83216615803E+01 0.59970723146E+01
 0.47196375537E+01 0.41192694583E+01 0.41122788793E+01 0.47126988690E+01 0.60041445867E+01
 0.83285492352E+01 0.12768184231E+02 0.19969901516E+02 0.29703978869E+02 0.41221166550E+02
 0.53700975534E+02 0.66090282197E+02 0.76574690807E+02 0.89820614200E+02 0.86202195671E+02
 0.76565759993E+02 0.63662076756E+02 0.50040599641E+02 0.37184492498E+02 0.25899678479E+02
 0.16904272132E+02 0.10732288436E+02 0.72284357585E+01 0.54243743094E+01 0.44504512040E+01
 0.41454816606E+01 0.44504512040E+01 0.54243743094E+01 0.72284357585E+01 0.10732288436E+02
 0.16904272132E+02 0.25899678479E+02 0.37184492498E+02 0.50040599641E+02 0.63662076756E+02
 0.76565759993E+02 0.86202195671E+02 0.79486594736E+02 0.70819923831E+02 0.59078735884E+02
 0.46532893578E+02 0.34596295250E+02 0.24097851034E+02 0.15761773240E+02 0.10099692836E+02
 0.69234405377E+01 0.52555734909E+01 0.43332995443E+01 0.40389945193E+01 0.43331745166E+01
 0.52554359422E+01 0.69234407135E+01 0.10099915244E+02 0.15762169006E+02 0.24098250269E+02
 0.34596496158E+02 0.46532778481E+02 0.59078346342E+02 0.70819448777E+02 0.79486274850E+02
 0.82718357750E+02 0.70811752892E+02 0.61010827751E+02 0.49428019849E+02 0.37807303361E+02
 0.27197479398E+02 0.18349808902E+02 0.11868708032E+02 0.78893613452E+01 0.57862626445E+01
 0.45975770179E+01 0.40419127807E+01 0.40353997529E+01 0.45909817018E+01 0.57925683437E+01
 0.78957271256E+01 0.11862260958E+02 0.18343418847E+02 0.27203905073E+02 0.37813458346E+02
 0.49420970855E+02 0.61003676922E+02 0.70817676125E+02 0.76574193855E+02 0.76567932907E+02
 0.59074802888E+02 0.49424789921E+02 0.38932946327E+02 0.28858100827E+02 0.20073911372E+02
 0.13271197832E+02 0.87797379045E+01 0.62680191333E+01 0.48533068523E+01 0.40827825313E+01
 0.38450060287E+01 0.40827165745E+01 0.48531753673E+01 0.62678181267E+01 0.87794543450E+01
 0.13270811791E+02 0.20073407896E+02 0.28857487928E+02 0.38932269839E+02 0.49424135200E+02
 0.59074278475E+02 0.66093517355E+02 0.68691369566E+02 0.66093810169E+02 0.46535615580E+02
 0.37808314279E+02 0.28860319837E+02 0.20686304604E+02 0.14044942969E+02 0.93957625160E+01
 0.66426029631E+01 0.50805121867E+01 0.41455152265E+01 0.37235638216E+01 0.37280105227E+01
 0.41499543490E+01 0.50759957712E+01 0.66379034549E+01 0.93996704629E+01 0.14048599537E+02
 0.20680996310E+02 0.28855145883E+02 0.37812278399E+02 0.46539813391E+02 0.53702180933E+02
 0.57810963470E+02 0.57815431033E+02 0.53706722515E+02 0.34596295250E+02 0.27198408995E+02
 0.20077844368E+02 0.14049462309E+02 0.96222437552E+01 0.68454930463E+01 0.52237741934E+01
 0.42083649933E+01 0.36671161233E+01 0.34997279776E+01 0.36672636216E+01 0.42085154051E+01
 0.52237281632E+01 0.68451228080E+01 0.96215808270E+01 0.14048693661E+02 0.20077217776E+02
 0.27198101692E+02 0.34596321892E+02 0.41220152256E+02 0.45882289132E+02 0.47571615018E+02
 0.45882105298E+02 0.41219938908E+02 0.24093990110E+02 0.18345498886E+02 0.13270117744E+02
 0.93990616137E+01 0.68488734646E+01 0.52732475417E+01 0.42383507128E+01 0.36426535417E+01
 0.33788223106E+01 0.33768023584E+01 0.36407924661E+01 0.42407174710E+01 0.52753495580E+01
 0.68463939604E+01 0.93964569928E+01 0.13271898976E+02 0.18347520178E+02 0.24092003512E+02
 0.29699763244E+02 0.34221465071E+02 0.36760458138E+02 0.36758138122E+02 0.34218917119E+02
 0.29701530985E+02 0.15762671309E+02 0.11865478104E+02 0.87749068396E+01 0.66403839534E+01
 0.52246722626E+01 0.42394308007E+01 0.36337536807E+01 0.33236844786E+01 0.32305586908E+01
 0.33238766702E+01 0.36340290301E+01 0.42396371184E+01 0.52247066305E+01 0.66402562896E+01
 0.87747359372E+01 0.11865421295E+02 0.15762828401E+02 0.19973777515E+02 0.23793240055E+02
 0.26476652470E+02 0.27444641451E+02 0.26476389424E+02 0.23792841982E+02 0.19973429488E+02
 0.10104951675E+02 0.78929091000E+01 0.62677013062E+01 0.50779753499E+01 0.42063824902E+01
 0.36418912809E+01 0.33233666515E+01 0.31845216501E+01 0.31851856791E+01 0.33240964883E+01
 0.36414051335E+01 0.42058843045E+01 0.50786644163E+01 0.62683097702E+01 0.78922394428E+01
 0.10104343101E+02 0.12772131554E+02 0.15500206914E+02 0.17755440828E+02 0.19035974740E+02
 0.19036559957E+02 0.17755950880E+02 0.15499428822E+02 0.12771394376E+02 0.69234405377E+01
 0.57896696999E+01 0.48572398480E+01 0.41475571084E+01 0.36671161233E+01 0.33779193504E+01
 0.32296606216E+01 0.31846907242E+01 0.32295897090E+01 0.33778152635E+01 0.36670308099E+01
 0.41475239987E+01 0.48572520363E+01 0.57896828706E+01 0.69233997766E+01 0.83247193146E+01
 0.99085387253E+01 0.11412846129E+02 0.12502234497E+02 0.12900805577E+02 0.12502358360E+02
 0.11413041927E+02 0.99087299375E+01 0.83248441354E+01 0.52506013640E+01 0.45943782055E+01
 0.40828136464E+01 0.37257517162E+01 0.35019971927E+01 0.33779135615E+01 0.33239077854E+01
 0.33237475460E+01 0.33776070205E+01 0.35017800656E+01 0.37256020384E+01 0.40826558758E+01
 0.45943111969E+01 0.52506494684E+01 0.60005068514E+01 0.67954996489E+01 0.75954648447E+01
 0.82716937454E+01 0.86638271989E+01 0.86638764554E+01 0.82719294241E+01 0.75959010547E+01
 0.67958642795E+01 0.60005854997E+01 0.43333021197E+01 0.40386828531E+01 0.38410704577E+01
 0.37257915130E+01 0.36672661970E+01 0.36418725540E+01 0.36349245239E+01 0.36417229606E+01
 0.36670333853E+01 0.37255709233E+01 0.38409336909E+01 0.40386399008E+01 0.43333005036E+01
 0.47161877678E+01 0.51510389976E+01 0.55811219359E+01 0.59446611773E+01 0.61928370312E+01
 0.62822022122E+01 0.61929827455E+01 0.59448872702E+01 0.55813347673E+01 0.51511690455E+01
 0.47162268409E+01 0.40439436057E+01 0.40386377552E+01 0.40827084998E+01 0.41477272646E+01
 0.42062231495E+01 0.42396454577E+01 0.42396290438E+01 0.42061940570E+01 0.41477092012E+01
 0.40826950656E+01 0.40386318261E+01 0.40439827131E+01 0.41158976886E+01 0.42509275052E+01
 0.44246985759E+01 0.46004534305E+01 0.47410815917E+01 0.48186020861E+01 0.48185804178E+01
 0.47410363451E+01 0.46004025699E+01 0.44246213638E+01 0.42508156506E+01 0.41157987765E+01
 0.43331745166E+01 0.45942221006E+01 0.48571083629E+01 0.50782043097E+01 0.52237281632E+01
 0.52742799412E+01 0.52238085613E+01 0.50783361180E+01 0.48572520363E+01 0.45943527832E+01
 0.43332979282E+01 0.41158791427E+01 0.39682058986E+01 0.38931074619E+01 0.38733598833E+01
 0.38828611278E+01 0.38981868567E+01 0.39048019666E+01 0.38980219333E+01 0.38825829174E+01
 0.38730471594E+01 0.38928303772E+01 0.39679979616E+01 0.41157310152E+01 0.52504970531E+01
 0.57893362933E+01 0.62678160040E+01 0.66401245874E+01 0.68474252610E+01 0.68474719257E+01
 0.66402541668E+01 0.62679940657E+01 0.57895078654E+01 0.52506162305E+01 0.47161856451E+01
 0.42509215532E+01 0.38930991135E+01 0.36485033031E+01 0.34989983186E+01 0.34180050108E+01
 0.33833264266E+01 0.33832119975E+01 0.34177019970E+01 0.34986146084E+01 0.36481678368E+01
 0.38928900102E+01 0.42508216026E+01 0.47161117046E+01 0.69235028003E+01 0.78924971980E+01
 0.87754592625E+01 0.93974514532E+01 0.96216429139E+01 0.93975370807E+01 0.87755719196E+01
 0.78925572700E+01 0.69234618635E+01 0.60004757363E+01 0.51509794861E+01 0.44247066506E+01
 0.38734219702E+01 0.34990004413E+01 0.32718176563E+01 0.31544225025E+01 0.31186347798E+01
 0.31542524649E+01 0.32715587965E+01 0.34987715490E+01 0.38733167044E+01 0.44247467907E+01
 0.51511095340E+01 0.60006002865E+01 0.10105011446E+02 0.11865646076E+02 0.13270656601E+02
 0.14046225338E+02 0.14046548521E+02 0.13270974078E+02 0.11865266105E+02 0.10104505738E+02
 0.83250516324E+01 0.67956859540E+01 0.55809667459E+01 0.46003063152E+01 0.38830267890E+01
 0.34181580781E+01 0.31542673125E+01 0.30383023781E+01 0.30385859843E+01 0.31545321955E+01
 0.34178459972E+01 0.38827898466E+01 0.46007702092E+01 0.55815149578E+01 0.67956779744E+01
 0.83250343622E+01 0.15762169006E+02 0.18347177689E+02 0.20077340892E+02 0.20682686405E+02
 0.20077217776E+02 0.18346969004E+02 0.15761930331E+02 0.12771284813E+02 0.99085387253E+01
 0.75960248738E+01 0.59446586020E+01 0.47405446030E+01 0.38981868567E+01 0.33838532179E+01
 0.31185726929E+01 0.30379018802E+01 0.31186920282E+01 0.33840553533E+01 0.38984179697E+01
 0.47407609187E+01 0.59448460332E+01 0.75961998054E+01 0.99087299375E+01 0.12771507677E+02
 0.24092585150E+02 0.27201399253E+02 0.28858212036E+02 0.28856640785E+02 0.27199677915E+02
 0.24093807708E+02 0.19974501623E+02 0.15499164979E+02 0.11411944893E+02 0.82723867383E+01
 0.61935611393E+01 0.48178699034E+01 0.39040673873E+01 0.33839382283E+01 0.31549765729E+01
 0.31536528974E+01 0.33828023312E+01 0.39058595243E+01 0.48195250278E+01 0.61921014505E+01
 0.82707537130E+01 0.11413160910E+02 0.15500470757E+02 0.19973096168E+02 0.34594795363E+02
 0.37810228418E+02 0.38930037638E+02 0.37810059389E+02 0.34594621097E+02 0.29700843332E+02
 0.23795838920E+02 0.17755758655E+02 0.12500533702E+02 0.86637960838E+01 0.62839055826E+01
 0.48185884925E+01 0.38963211382E+01 0.34177041197E+01 0.32733216784E+01 0.34180011872E+01
 0.38967171746E+01 0.48188009197E+01 0.62837292793E+01 0.86632209097E+01 0.12499751126E+02
 0.17755055442E+02 0.23795440846E+02 0.29700799682E+02 0.46535945277E+02 0.49422426567E+02
 0.49425909416E+02 0.46539368597E+02 0.41216077710E+02 0.34218610767E+02 0.26478426686E+02
 0.19038066783E+02 0.12899208489E+02 0.86621333547E+01 0.61947569613E+01 0.47428186355E+01
 0.38808191728E+01 0.34968382699E+01 0.35005457648E+01 0.38847192524E+01 0.47395156170E+01
 0.61910513428E+01 0.86649951255E+01 0.12901668453E+02 0.19033365279E+02 0.26474022809E+02