   1   1   1   0
  0.1482975E+02  0.2757716E-09  0.2757716E-09  0.2757716E-09  0.5000000E-15
  1.000000000000000E-004
  CAR 
 unknown system                          
     29.26286565     -4.06760515  301      4.89963430      1.00000000
     -4.068  0.0000E+00  0.0000E+00
     -3.957  0.0000E+00  0.0000E+00
     -3.845  0.0000E+00  0.0000E+00
     -3.734  0.0000E+00  0.0000E+00
     -3.623  0.0000E+00  0.0000E+00
     -3.512  0.0000E+00  0.0000E+00
     -3.401  0.0000E+00  0.0000E+00
     -3.290  0.0000E+00  0.0000E+00
     -3.179  0.0000E+00  0.0000E+00
     -3.068  0.0000E+00  0.0000E+00
     -2.957  0.0000E+00  0.0000E+00
     -2.845  0.0000E+00  0.0000E+00
     -2.734  0.0000E+00  0.0000E+00
     -2.623  0.0000E+00  0.0000E+00
     -2.512  0.0000E+00  0.0000E+00
     -2.401  0.0000E+00  0.0000E+00
     -2.290  0.0000E+00  0.0000E+00
     -2.179  0.0000E+00  0.0000E+00
     -2.068  0.0000E+00  0.0000E+00
     -1.957  0.2711E-01  0.3353E-02
     -1.846  0.4028E-01  0.7077E-02
     -1.734  0.5558E-01  0.1238E-01
     -1.623  0.6005E-01  0.1876E-01
     -1.512  0.6756E-01  0.2585E-01
     -1.401  0.7432E-01  0.3374E-01
     -1.290  0.8249E-01  0.4241E-01
     -1.179  0.9311E-01  0.5215E-01
     -1.068  0.1056E+00  0.6317E-01
     -0.957  0.1168E+00  0.7552E-01
     -0.846  0.1281E+00  0.8913E-01
     -0.735  0.1414E+00  0.1040E+00
     -0.623  0.1602E+00  0.1207E+00
     -0.512  0.1842E+00  0.1398E+00
     -0.401  0.2140E+00  0.1618E+00
     -0.290  0.4706E+00  0.1991E+00
     -0.179  0.1027E+01  0.2850E+00
     -0.068  0.1315E+01  0.4144E+00
      0.043  0.1617E+01  0.5770E+00
      0.154  0.2020E+01  0.7787E+00
      0.265  0.2311E+01  0.1018E+01
      0.376  0.2590E+01  0.1309E+01
      0.488  0.2204E+01  0.1571E+01
      0.599  0.2067E+01  0.1806E+01
      0.710  0.2116E+01  0.2050E+01
      0.821  0.1624E+01  0.2270E+01
      0.932  0.1264E+01  0.2436E+01
      1.043  0.1072E+01  0.2564E+01
      1.154  0.1458E+01  0.2690E+01
      1.265  0.1564E+01  0.2909E+01
      1.376  0.1530E+01  0.3082E+01
      1.487  0.1585E+01  0.3252E+01
      1.599  0.1766E+01  0.3443E+01
      1.710  0.1307E+01  0.3592E+01
      1.821  0.1641E+01  0.3753E+01
      1.932  0.1970E+01  0.3960E+01
      2.043  0.1751E+01  0.4189E+01
      2.154  0.1767E+01  0.4387E+01
      2.265  0.3008E+01  0.4653E+01
      2.376  0.3513E+01  0.5024E+01
      2.487  0.3021E+01  0.5421E+01
      2.598  0.1888E+01  0.5681E+01
      2.710  0.1287E+01  0.5844E+01
      2.821  0.1567E+01  0.5998E+01
      2.932  0.1860E+01  0.6189E+01
      3.043  0.1833E+01  0.6393E+01
      3.154  0.1641E+01  0.6588E+01
      3.265  0.1636E+01  0.6764E+01
      3.376  0.2093E+01  0.6977E+01
      3.487  0.2356E+01  0.7220E+01
      3.598  0.1939E+01  0.7447E+01
      3.710  0.1719E+01  0.7679E+01
      3.821  0.1723E+01  0.7881E+01
      3.932  0.1697E+01  0.8071E+01
      4.043  0.1622E+01  0.8256E+01
      4.154  0.1572E+01  0.8432E+01
      4.265  0.1604E+01  0.8609E+01
      4.376  0.1630E+01  0.8789E+01
      4.487  0.1769E+01  0.8978E+01
      4.598  0.1928E+01  0.9185E+01
      4.709  0.2476E+01  0.9420E+01
      4.821  0.3720E+01  0.9754E+01
      4.932  0.2025E+01  0.1007E+02
      5.043  0.1340E+01  0.1026E+02
      5.154  0.2490E+00  0.1041E+02
      5.265  0.2363E+00  0.1044E+02
      5.376  0.2368E+00  0.1047E+02
      5.487  0.2351E+00  0.1049E+02
      5.598  0.2353E+00  0.1052E+02
      5.709  0.2377E+00  0.1055E+02
      5.820  0.2403E+00  0.1057E+02
      5.932  0.2430E+00  0.1060E+02
      6.043  0.2452E+00  0.1063E+02
      6.154  0.2438E+00  0.1065E+02
      6.265  0.2445E+00  0.1068E+02
      6.376  0.2465E+00  0.1071E+02
      6.487  0.2488E+00  0.1074E+02
      6.598  0.2644E+00  0.1076E+02
      6.709  0.2597E+00  0.1079E+02
      6.820  0.2558E+00  0.1082E+02
      6.931  0.2540E+00  0.1085E+02
      7.043  0.2556E+00  0.1088E+02
      7.154  0.2560E+00  0.1091E+02
      7.265  0.2554E+00  0.1094E+02
      7.376  0.2554E+00  0.1096E+02
      7.487  0.2552E+00  0.1099E+02
      7.598  0.2550E+00  0.1102E+02
      7.709  0.2547E+00  0.1105E+02
      7.820  0.2547E+00  0.1108E+02
      7.931  0.2555E+00  0.1111E+02
      8.042  0.2568E+00  0.1113E+02
      8.154  0.2586E+00  0.1116E+02
      8.265  0.2599E+00  0.1119E+02
      8.376  0.2589E+00  0.1122E+02
      8.487  0.2624E+00  0.1125E+02
      8.598  0.2617E+00  0.1128E+02
      8.709  0.2600E+00  0.1131E+02
      8.820  0.2547E+00  0.1134E+02
      8.931  0.2524E+00  0.1137E+02
      9.042  0.2499E+00  0.1139E+02
      9.153  0.2473E+00  0.1142E+02
      9.265  0.2444E+00  0.1145E+02
      9.376  0.2412E+00  0.1148E+02
      9.487  0.2373E+00  0.1150E+02
      9.598  0.2320E+00  0.1153E+02
      9.709  0.2279E+00  0.1156E+02
      9.820  0.2315E+00  0.1158E+02
      9.931  0.2362E+00  0.1161E+02
     10.042  0.2260E+00  0.1163E+02
     10.153  0.2163E+00  0.1166E+02
     10.264  0.2113E+00  0.1168E+02
     10.376  0.2072E+00  0.1170E+02
     10.487  0.2032E+00  0.1173E+02
     10.598  0.1988E+00  0.1175E+02
     10.709  0.2022E+00  0.1177E+02
     10.820  0.1854E+00  0.1179E+02
     10.931  0.1796E+00  0.1181E+02
     11.042  0.1738E+00  0.1183E+02
     11.153  0.1696E+00  0.1185E+02
     11.264  0.1645E+00  0.1187E+02
     11.376  0.1587E+00  0.1189E+02
     11.487  0.1575E+00  0.1191E+02
     11.598  0.1571E+00  0.1192E+02
     11.709  0.1281E+00  0.1194E+02
     11.820  0.8997E-01  0.1195E+02
     11.931  0.7406E-01  0.1196E+02
     12.042  0.6577E-01  0.1197E+02
     12.153  0.5774E-01  0.1198E+02
     12.264  0.4998E-01  0.1198E+02
     12.375  0.2201E+00  0.1200E+02
     12.487  0.2717E+00  0.1203E+02
     12.598  0.2733E+00  0.1207E+02
     12.709  0.2802E+00  0.1210E+02
     12.820  0.2924E+00  0.1213E+02
     12.931  0.3020E+00  0.1216E+02
     13.042  0.3314E+00  0.1220E+02
     13.153  0.3556E+00  0.1224E+02
     13.264  0.3670E+00  0.1228E+02
     13.375  0.3520E+00  0.1232E+02
     13.486  0.3489E+00  0.1236E+02
     13.598  0.3471E+00  0.1239E+02
     13.709  0.3427E+00  0.1243E+02
     13.820  0.3352E+00  0.1247E+02
     13.931  0.3264E+00  0.1251E+02
     14.042  0.3342E+00  0.1255E+02
     14.153  0.3219E+00  0.1259E+02
     14.264  0.3114E+00  0.1262E+02
     14.375  0.3003E+00  0.1266E+02
     14.486  0.2882E+00  0.1269E+02
     14.597  0.2784E+00  0.1272E+02
     14.709  0.2741E+00  0.1275E+02
     14.820  0.2711E+00  0.1278E+02
     14.931  0.2699E+00  0.1281E+02
     15.042  0.2693E+00  0.1284E+02
     15.153  0.2693E+00  0.1287E+02
     15.264  0.2799E+00  0.1290E+02
     15.375  0.2794E+00  0.1293E+02
     15.486  0.2780E+00  0.1296E+02
     15.597  0.2756E+00  0.1299E+02
     15.708  0.2726E+00  0.1302E+02
     15.820  0.2690E+00  0.1305E+02
     15.931  0.2402E+00  0.1310E+02
     16.042  0.2339E+00  0.1312E+02
     16.153  0.6536E+00  0.1318E+02
     16.264  0.5175E+00  0.1324E+02
     16.375  0.4970E+00  0.1330E+02
     16.486  0.4634E+00  0.1335E+02
     16.597  0.4472E+00  0.1341E+02
     16.708  0.4396E+00  0.1345E+02
     16.819  0.4222E+00  0.1350E+02
     16.931  0.4181E+00  0.1355E+02
     17.042  0.4092E+00  0.1359E+02
     17.153  0.4025E+00  0.1364E+02
     17.264  0.4354E+00  0.1369E+02
     17.375  0.4421E+00  0.1374E+02
     17.486  0.4491E+00  0.1379E+02
     17.597  0.4562E+00  0.1384E+02
     17.708  0.4636E+00  0.1389E+02
     17.819  0.4701E+00  0.1394E+02
     17.931  0.4741E+00  0.1400E+02
     18.042  0.4863E+00  0.1405E+02
     18.153  0.4884E+00  0.1411E+02
     18.264  0.4887E+00  0.1416E+02
     18.375  0.4920E+00  0.1422E+02
     18.486  0.4971E+00  0.1427E+02
     18.597  0.6580E+00  0.1433E+02
     18.708  0.5387E+00  0.1440E+02
     18.819  0.5349E+00  0.1446E+02
     18.930  0.5316E+00  0.1452E+02
     19.042  0.5312E+00  0.1458E+02
     19.153  0.5323E+00  0.1464E+02
     19.264  0.5230E+00  0.1470E+02
     19.375  0.5122E+00  0.1476E+02
     19.486  0.5135E+00  0.1481E+02
     19.597  0.5147E+00  0.1487E+02
     19.708  0.5163E+00  0.1493E+02
     19.819  0.5143E+00  0.1498E+02
     19.930  0.5119E+00  0.1504E+02
     20.041  0.5148E+00  0.1510E+02
     20.153  0.5261E+00  0.1516E+02
     20.264  0.5181E+00  0.1521E+02
     20.375  0.5202E+00  0.1527E+02
     20.486  0.5226E+00  0.1533E+02
     20.597  0.5252E+00  0.1539E+02
     20.708  0.5147E+00  0.1545E+02
     20.819  0.5196E+00  0.1550E+02
     20.930  0.5215E+00  0.1556E+02
     21.041  0.5232E+00  0.1562E+02
     21.152  0.5228E+00  0.1568E+02
     21.264  0.5221E+00  0.1574E+02
     21.375  0.5221E+00  0.1579E+02
     21.486  0.5232E+00  0.1585E+02
     21.597  0.5190E+00  0.1591E+02
     21.708  0.5253E+00  0.1597E+02
     21.819  0.5375E+00  0.1603E+02
     21.930  0.5470E+00  0.1609E+02
     22.041  0.5582E+00  0.1615E+02
     22.152  0.5785E+00  0.1621E+02
     22.263  0.5984E+00  0.1628E+02
     22.375  0.8082E+00  0.1635E+02
     22.486  0.6384E+00  0.1643E+02
     22.597  0.5813E+00  0.1650E+02
     22.708  0.5425E+00  0.1656E+02
     22.819  0.5204E+00  0.1662E+02
     22.930  0.5006E+00  0.1668E+02
     23.041  0.4867E+00  0.1673E+02
     23.152  0.4773E+00  0.1678E+02
     23.263  0.5099E+00  0.1684E+02
     23.374  0.5397E+00  0.1690E+02
     23.486  0.5204E+00  0.1696E+02
     23.597  0.3969E+00  0.1701E+02
     23.708  0.4043E+00  0.1706E+02
     23.819  0.4063E+00  0.1710E+02
     23.930  0.4014E+00  0.1715E+02
     24.041  0.4213E+00  0.1719E+02
     24.152  0.4243E+00  0.1724E+02
     24.263  0.3714E+00  0.1728E+02
     24.374  0.3675E+00  0.1733E+02
     24.485  0.3159E+00  0.1737E+02
     24.597  0.2974E+00  0.1740E+02
     24.708  0.2802E+00  0.1743E+02
     24.819  0.2676E+00  0.1746E+02
     24.930  0.2556E+00  0.1749E+02
     25.041  0.2444E+00  0.1752E+02
     25.152  0.2340E+00  0.1755E+02
     25.263  0.2269E+00  0.1757E+02
     25.374  0.2245E+00  0.1760E+02
     25.485  0.2252E+00  0.1762E+02
     25.597  0.2338E+00  0.1765E+02
     25.708  0.2382E+00  0.1767E+02
     25.819  0.2129E+00  0.1770E+02
     25.930  0.2087E+00  0.1772E+02
     26.041  0.2073E+00  0.1775E+02
     26.152  0.2034E+00  0.1777E+02
     26.263  0.1929E+00  0.1779E+02
     26.374  0.1804E+00  0.1781E+02
     26.485  0.1702E+00  0.1783E+02
     26.596  0.1621E+00  0.1785E+02
     26.708  0.1514E+00  0.1787E+02
     26.819  0.1911E+00  0.1789E+02
     26.930  0.2333E+00  0.1791E+02
     27.041  0.2695E+00  0.1795E+02
     27.152  0.1427E+00  0.1797E+02
     27.263  0.0000E+00  0.1800E+02
     27.374  0.0000E+00  0.1800E+02
     27.485  0.0000E+00  0.1800E+02
     27.596  0.0000E+00  0.1800E+02
     27.707  0.0000E+00  0.1800E+02
     27.819  0.0000E+00  0.1800E+02
     27.930  0.0000E+00  0.1800E+02
     28.041  0.0000E+00  0.1800E+02
     28.152  0.0000E+00  0.1800E+02
     28.263  0.0000E+00  0.1800E+02
     28.374  0.0000E+00  0.1800E+02
     28.485  0.0000E+00  0.1800E+02
     28.596  0.0000E+00  0.1800E+02
     28.707  0.0000E+00  0.1800E+02
     28.818  0.0000E+00  0.1800E+02
     28.930  0.0000E+00  0.1800E+02
     29.041  0.0000E+00  0.1800E+02
     29.152  0.0000E+00  0.1800E+02
     29.263  0.0000E+00  0.1800E+02
     29.26286565     -4.06760515  301      4.89963430      1.00000000
     -4.068  0.0000E+00  0.0000E+00  0.0000E+00
     -3.957  0.0000E+00  0.0000E+00  0.0000E+00
     -3.845  0.0000E+00  0.0000E+00  0.0000E+00
     -3.734  0.0000E+00  0.0000E+00  0.0000E+00
     -3.623  0.0000E+00  0.0000E+00  0.0000E+00
     -3.512  0.0000E+00  0.0000E+00  0.0000E+00
     -3.401  0.0000E+00  0.0000E+00  0.0000E+00
     -3.290  0.0000E+00  0.0000E+00  0.0000E+00
     -3.179  0.0000E+00  0.0000E+00  0.0000E+00
     -3.068  0.0000E+00  0.0000E+00  0.0000E+00
     -2.957  0.0000E+00  0.0000E+00  0.0000E+00
     -2.845  0.0000E+00  0.0000E+00  0.0000E+00
     -2.734  0.0000E+00  0.0000E+00  0.0000E+00
     -2.623  0.0000E+00  0.0000E+00  0.0000E+00
     -2.512  0.0000E+00  0.0000E+00  0.0000E+00
     -2.401  0.0000E+00  0.0000E+00  0.0000E+00
     -2.290  0.0000E+00  0.0000E+00  0.0000E+00
     -2.179  0.0000E+00  0.0000E+00  0.0000E+00
     -2.068  0.0000E+00  0.0000E+00  0.0000E+00
     -1.957  0.1979E-01  0.6868E-03  0.8963E-04
     -1.846  0.2918E-01  0.1215E-02  0.1857E-03
     -1.734  0.4003E-01  0.1868E-02  0.3117E-03
     -1.623  0.4214E-01  0.2846E-02  0.7158E-03
     -1.512  0.4665E-01  0.3686E-02  0.1153E-02
     -1.401  0.5047E-01  0.4568E-02  0.1698E-02
     -1.290  0.5507E-01  0.5594E-02  0.2433E-02
     -1.179  0.6106E-01  0.6843E-02  0.3468E-02
     -1.068  0.6800E-01  0.8293E-02  0.4796E-02
     -0.957  0.7297E-01  0.9947E-02  0.7154E-02
     -0.846  0.7776E-01  0.1154E-01  0.9863E-02
     -0.735  0.8283E-01  0.1357E-01  0.1360E-01
     -0.623  0.9006E-01  0.1596E-01  0.1944E-01
     -0.512  0.9909E-01  0.1856E-01  0.2765E-01
     -0.401  0.1094E+00  0.2139E-01  0.3954E-01
     -0.290  0.1424E+00  0.2654E-01  0.2277E+00
     -0.179  0.2416E+00  0.4212E-01  0.6074E+00
     -0.068  0.2575E+00  0.5412E-01  0.8403E+00
      0.043  0.2638E+00  0.6769E-01  0.1098E+01
      0.154  0.2937E+00  0.9018E-01  0.1406E+01
      0.265  0.2891E+00  0.1014E+00  0.1670E+01
      0.376  0.2554E+00  0.1097E+00  0.1966E+01
      0.488  0.1793E+00  0.9694E-01  0.1716E+01
      0.599  0.1388E+00  0.9510E-01  0.1640E+01
      0.710  0.1096E+00  0.1027E+00  0.1708E+01
      0.821  0.7611E-01  0.8606E-01  0.1317E+01
      0.932  0.4222E-01  0.7518E-01  0.1037E+01
      1.043  0.1713E-01  0.6792E-01  0.8946E+00
      1.154  0.1707E-01  0.9638E-01  0.1218E+01
      1.265  0.2148E-01  0.1032E+00  0.1298E+01
      1.376  0.2234E-01  0.8886E-01  0.1285E+01
      1.487  0.2588E-01  0.7824E-01  0.1354E+01
      1.599  0.3012E-01  0.7330E-01  0.1535E+01
      1.710  0.2143E-01  0.4918E-01  0.1145E+01
      1.821  0.3749E-01  0.8841E-01  0.1395E+01
      1.932  0.4399E-01  0.1285E+00  0.1654E+01
      2.043  0.4210E-01  0.1229E+00  0.1458E+01
      2.154  0.4487E-01  0.1238E+00  0.1470E+01
      2.265  0.6400E-01  0.1632E+00  0.2585E+01
      2.376  0.5972E-01  0.1780E+00  0.3061E+01
      2.487  0.4818E-01  0.1696E+00  0.2621E+01
      2.598  0.3817E-01  0.1100E+00  0.1625E+01
      2.710  0.3500E-01  0.7807E-01  0.1093E+01
      2.821  0.3853E-01  0.9860E-01  0.1329E+01
      2.932  0.3427E-01  0.1121E+00  0.1598E+01
      3.043  0.2817E-01  0.1169E+00  0.1573E+01
      3.154  0.2249E-01  0.9868E-01  0.1420E+01
      3.265  0.2130E-01  0.8716E-01  0.1433E+01
      3.376  0.2608E-01  0.8268E-01  0.1876E+01
      3.487  0.2524E-01  0.7642E-01  0.2141E+01
      3.598  0.2279E-01  0.7001E-01  0.1750E+01
      3.710  0.2042E-01  0.6090E-01  0.1555E+01
      3.821  0.1889E-01  0.5464E-01  0.1572E+01
      3.932  0.1802E-01  0.4978E-01  0.1557E+01
      4.043  0.1722E-01  0.4413E-01  0.1495E+01
      4.154  0.1663E-01  0.4031E-01  0.1454E+01
      4.265  0.1650E-01  0.3705E-01  0.1492E+01
      4.376  0.1638E-01  0.3421E-01  0.1522E+01
      4.487  0.1715E-01  0.3467E-01  0.1658E+01
      4.598  0.1693E-01  0.3341E-01  0.1817E+01
      4.709  0.1667E-01  0.3195E-01  0.2357E+01
      4.821  0.1818E-01  0.3240E-01  0.3574E+01
      4.932  0.1729E-01  0.2533E-01  0.1930E+01
      5.043  0.1833E-01  0.2524E-01  0.1259E+01
      5.154  0.1981E-01  0.2603E-01  0.1858E+00
      5.265  0.2124E-01  0.2919E-01  0.1675E+00
      5.376  0.2254E-01  0.3230E-01  0.1623E+00
      5.487  0.2321E-01  0.3490E-01  0.1566E+00
      5.598  0.2397E-01  0.3746E-01  0.1525E+00
      5.709  0.2486E-01  0.4046E-01  0.1498E+00
      5.820  0.2574E-01  0.4353E-01  0.1472E+00
      5.932  0.2660E-01  0.4668E-01  0.1447E+00
      6.043  0.2745E-01  0.4995E-01  0.1414E+00
      6.154  0.2829E-01  0.5338E-01  0.1345E+00
      6.265  0.2883E-01  0.5637E-01  0.1306E+00
      6.376  0.2932E-01  0.5920E-01  0.1282E+00
      6.487  0.2970E-01  0.6190E-01  0.1265E+00
      6.598  0.3033E-01  0.7064E-01  0.1291E+00
      6.709  0.3039E-01  0.6987E-01  0.1256E+00
      6.820  0.3039E-01  0.6976E-01  0.1222E+00
      6.931  0.3041E-01  0.7068E-01  0.1193E+00
      7.043  0.3051E-01  0.7331E-01  0.1173E+00
      7.154  0.3061E-01  0.7519E-01  0.1152E+00
      7.265  0.3073E-01  0.7711E-01  0.1120E+00
      7.376  0.3073E-01  0.7870E-01  0.1099E+00
      7.487  0.3071E-01  0.8025E-01  0.1077E+00
      7.598  0.3066E-01  0.8173E-01  0.1057E+00
      7.709  0.3054E-01  0.8309E-01  0.1038E+00
      7.820  0.3037E-01  0.8457E-01  0.1021E+00
      7.931  0.3020E-01  0.8646E-01  0.1006E+00
      8.042  0.3006E-01  0.8855E-01  0.9933E-01
      8.154  0.2986E-01  0.9080E-01  0.9837E-01
      8.265  0.2962E-01  0.9287E-01  0.9732E-01
      8.376  0.2919E-01  0.9396E-01  0.9539E-01
      8.487  0.2878E-01  0.9851E-01  0.9364E-01
      8.598  0.2847E-01  0.9972E-01  0.9166E-01
      8.709  0.2809E-01  0.1005E+00  0.8951E-01
      8.820  0.2743E-01  0.9942E-01  0.8653E-01
      8.931  0.2692E-01  0.9943E-01  0.8487E-01
      9.042  0.2641E-01  0.9932E-01  0.8319E-01
      9.153  0.2590E-01  0.9910E-01  0.8149E-01
      9.265  0.2537E-01  0.9877E-01  0.7977E-01
      9.376  0.2479E-01  0.9826E-01  0.7797E-01
      9.487  0.2409E-01  0.9747E-01  0.7604E-01
      9.598  0.2342E-01  0.9534E-01  0.7444E-01
      9.709  0.2286E-01  0.9419E-01  0.7254E-01
      9.820  0.2307E-01  0.9618E-01  0.7310E-01
      9.931  0.2346E-01  0.9864E-01  0.7387E-01
     10.042  0.2256E-01  0.9504E-01  0.6966E-01
     10.153  0.2165E-01  0.9149E-01  0.6596E-01
     10.264  0.2106E-01  0.8984E-01  0.6384E-01
     10.376  0.2056E-01  0.8855E-01  0.6209E-01
     10.487  0.2006E-01  0.8732E-01  0.6036E-01
     10.598  0.1953E-01  0.8588E-01  0.5852E-01
     10.709  0.2002E-01  0.8755E-01  0.5911E-01
     10.820  0.1819E-01  0.8097E-01  0.5351E-01
     10.931  0.1745E-01  0.7890E-01  0.5148E-01
     11.042  0.1681E-01  0.7655E-01  0.4955E-01
     11.153  0.1632E-01  0.7504E-01  0.4797E-01
     11.264  0.1579E-01  0.7311E-01  0.4620E-01
     11.376  0.1520E-01  0.7077E-01  0.4424E-01
     11.487  0.1510E-01  0.7042E-01  0.4348E-01
     11.598  0.1490E-01  0.7066E-01  0.4300E-01
     11.709  0.1269E-01  0.5722E-01  0.3484E-01
     11.820  0.8587E-02  0.4076E-01  0.2433E-01
     11.931  0.6796E-02  0.3396E-01  0.1992E-01
     12.042  0.5979E-02  0.3028E-01  0.1759E-01
     12.153  0.5187E-02  0.2672E-01  0.1535E-01
     12.264  0.4421E-02  0.2326E-01  0.1320E-01
     12.375  0.8261E-01  0.3403E-01  0.7276E-01
     12.487  0.1043E+00  0.4041E-01  0.8808E-01
     12.598  0.1107E+00  0.3515E-01  0.8766E-01
     12.709  0.1088E+00  0.4122E-01  0.8790E-01
     12.820  0.1084E+00  0.4888E-01  0.8942E-01
     12.931  0.1067E+00  0.5649E-01  0.8996E-01
     13.042  0.1076E+00  0.7274E-01  0.9520E-01
     13.153  0.1080E+00  0.8649E-01  0.9908E-01
     13.264  0.1067E+00  0.9483E-01  0.9916E-01
     13.375  0.9974E-01  0.9359E-01  0.9423E-01
     13.486  0.9605E-01  0.9580E-01  0.9219E-01
     13.598  0.9354E-01  0.9751E-01  0.9075E-01
     13.709  0.9066E-01  0.9803E-01  0.8870E-01
     13.820  0.8731E-01  0.9731E-01  0.8593E-01
     13.931  0.8387E-01  0.9592E-01  0.8288E-01
     14.042  0.8371E-01  0.1009E+00  0.8310E-01
     14.153  0.8034E-01  0.9736E-01  0.7936E-01
     14.264  0.7758E-01  0.9417E-01  0.7614E-01
     14.375  0.7486E-01  0.9064E-01  0.7285E-01
     14.486  0.7208E-01  0.8661E-01  0.6938E-01
     14.597  0.6972E-01  0.8340E-01  0.6647E-01
     14.709  0.6827E-01  0.8234E-01  0.6489E-01
     14.820  0.6740E-01  0.8151E-01  0.6363E-01
     14.931  0.6725E-01  0.8093E-01  0.6277E-01
     15.042  0.6738E-01  0.8042E-01  0.6208E-01
     15.153  0.6780E-01  0.7997E-01  0.6158E-01
     15.264  0.7290E-01  0.8108E-01  0.6296E-01
     15.375  0.7335E-01  0.8001E-01  0.6277E-01
     15.486  0.7349E-01  0.7864E-01  0.6246E-01
     15.597  0.7324E-01  0.7710E-01  0.6204E-01
     15.708  0.7277E-01  0.7540E-01  0.6157E-01
     15.820  0.7208E-01  0.7354E-01  0.6105E-01
     15.931  0.5994E-01  0.6810E-01  0.5578E-01
     16.042  0.5741E-01  0.6686E-01  0.5420E-01
     16.153  0.1782E+00  0.1498E+00  0.1741E+00
     16.264  0.1328E+00  0.1301E+00  0.1304E+00
     16.375  0.1231E+00  0.1293E+00  0.1234E+00
     16.486  0.1094E+00  0.1258E+00  0.1130E+00
     16.597  0.1018E+00  0.1248E+00  0.1079E+00
     16.708  0.9721E-01  0.1249E+00  0.1052E+00
     16.819  0.9170E-01  0.1217E+00  0.9948E-01
     16.931  0.8814E-01  0.1223E+00  0.9823E-01
     17.042  0.8316E-01  0.1219E+00  0.9589E-01
     17.153  0.7892E-01  0.1216E+00  0.9436E-01
     17.264  0.7758E-01  0.1346E+00  0.1046E+00
     17.375  0.7602E-01  0.1384E+00  0.1060E+00
     17.486  0.7449E-01  0.1423E+00  0.1075E+00
     17.597  0.7299E-01  0.1462E+00  0.1090E+00
     17.708  0.7151E-01  0.1501E+00  0.1107E+00
     17.819  0.6946E-01  0.1541E+00  0.1120E+00
     17.931  0.6706E-01  0.1579E+00  0.1116E+00
     18.042  0.6478E-01  0.1645E+00  0.1140E+00
     18.153  0.6207E-01  0.1668E+00  0.1142E+00
     18.264  0.5926E-01  0.1681E+00  0.1142E+00
     18.375  0.5694E-01  0.1706E+00  0.1149E+00
     18.486  0.5478E-01  0.1737E+00  0.1159E+00
     18.597  0.5392E-01  0.2668E+00  0.1229E+00
     18.708  0.5057E-01  0.2005E+00  0.1159E+00
     18.819  0.4844E-01  0.1996E+00  0.1148E+00
     18.930  0.4620E-01  0.1987E+00  0.1141E+00
     19.042  0.4431E-01  0.1985E+00  0.1143E+00
     19.153  0.4293E-01  0.1986E+00  0.1149E+00
     19.264  0.4190E-01  0.1920E+00  0.1154E+00
     19.375  0.4074E-01  0.1844E+00  0.1158E+00
     19.486  0.3957E-01  0.1844E+00  0.1163E+00
     19.597  0.3848E-01  0.1843E+00  0.1167E+00
     19.708  0.3738E-01  0.1843E+00  0.1173E+00
     19.819  0.3602E-01  0.1831E+00  0.1168E+00
     19.930  0.3498E-01  0.1813E+00  0.1164E+00
     20.041  0.3413E-01  0.1819E+00  0.1170E+00
     20.153  0.3344E-01  0.1866E+00  0.1188E+00
     20.264  0.3216E-01  0.1813E+00  0.1181E+00
     20.375  0.3127E-01  0.1808E+00  0.1188E+00
     20.486  0.3048E-01  0.1802E+00  0.1196E+00
     20.597  0.2977E-01  0.1796E+00  0.1203E+00
     20.708  0.2885E-01  0.1714E+00  0.1196E+00
     20.819  0.2822E-01  0.1714E+00  0.1204E+00
     20.930  0.2741E-01  0.1699E+00  0.1206E+00
     21.041  0.2657E-01  0.1680E+00  0.1208E+00
     21.152  0.2564E-01  0.1656E+00  0.1203E+00
     21.264  0.2475E-01  0.1628E+00  0.1197E+00
     21.375  0.2395E-01  0.1602E+00  0.1189E+00
     21.486  0.2313E-01  0.1577E+00  0.1182E+00
     21.597  0.2203E-01  0.1524E+00  0.1164E+00
     21.708  0.2127E-01  0.1501E+00  0.1164E+00
     21.819  0.2065E-01  0.1494E+00  0.1171E+00
     21.930  0.2002E-01  0.1482E+00  0.1171E+00
     22.041  0.1939E-01  0.1468E+00  0.1169E+00
     22.152  0.1878E-01  0.1458E+00  0.1174E+00
     22.263  0.1813E-01  0.1442E+00  0.1172E+00
     22.375  0.1835E-01  0.1589E+00  0.1293E+00
     22.486  0.1710E-01  0.1434E+00  0.1157E+00
     22.597  0.1644E-01  0.1341E+00  0.1085E+00
     22.708  0.1585E-01  0.1263E+00  0.1027E+00
     22.819  0.1537E-01  0.1216E+00  0.9893E-01
     22.930  0.1498E-01  0.1168E+00  0.9560E-01
     23.041  0.1464E-01  0.1122E+00  0.9245E-01
     23.152  0.1427E-01  0.1080E+00  0.9033E-01
     23.263  0.1415E-01  0.1066E+00  0.9316E-01
     23.374  0.1360E-01  0.1039E+00  0.9311E-01
     23.486  0.1289E-01  0.1008E+00  0.8906E-01
     23.597  0.1158E-01  0.9325E-01  0.7105E-01
     23.708  0.1173E-01  0.9303E-01  0.6999E-01
     23.819  0.1190E-01  0.9218E-01  0.6759E-01
     23.930  0.1201E-01  0.9097E-01  0.6412E-01
     24.041  0.1323E-01  0.9527E-01  0.6355E-01
     24.152  0.1380E-01  0.9639E-01  0.6147E-01
     24.263  0.1290E-01  0.9269E-01  0.5299E-01
     24.374  0.1256E-01  0.9413E-01  0.5077E-01
     24.485  0.1151E-01  0.8309E-01  0.4085E-01
     24.597  0.1048E-01  0.7961E-01  0.3781E-01
     24.708  0.9344E-02  0.7680E-01  0.3495E-01
     24.819  0.8626E-02  0.7511E-01  0.3303E-01
     24.930  0.7949E-02  0.7344E-01  0.3136E-01
     25.041  0.7312E-02  0.7186E-01  0.2989E-01
     25.152  0.6710E-02  0.7034E-01  0.2854E-01
     25.263  0.6176E-02  0.6982E-01  0.2750E-01
     25.374  0.5716E-02  0.7087E-01  0.2688E-01
     25.485  0.5235E-02  0.7347E-01  0.2652E-01
     25.597  0.5016E-02  0.7708E-01  0.2686E-01
     25.708  0.4761E-02  0.7885E-01  0.2684E-01
     25.819  0.3586E-02  0.7425E-01  0.2429E-01
     25.930  0.3276E-02  0.7438E-01  0.2372E-01
     26.041  0.2954E-02  0.7598E-01  0.2328E-01
     26.152  0.2595E-02  0.7664E-01  0.2249E-01
     26.263  0.2238E-02  0.7368E-01  0.2131E-01
     26.374  0.1892E-02  0.6966E-01  0.1986E-01
     26.485  0.1612E-02  0.6598E-01  0.1877E-01
     26.596  0.1356E-02  0.6317E-01  0.1783E-01
     26.708  0.1029E-02  0.6041E-01  0.1690E-01
     26.819  0.9129E-03  0.7427E-01  0.2018E-01
     26.930  0.7983E-03  0.9605E-01  0.2381E-01
     27.041  0.7160E-03  0.1222E+00  0.2405E-01
     27.152  0.1254E-03  0.6706E-01  0.1042E-01
     27.263  0.0000E+00  0.0000E+00  0.0000E+00
     27.374  0.0000E+00  0.0000E+00  0.0000E+00
     27.485  0.0000E+00  0.0000E+00  0.0000E+00
     27.596  0.0000E+00  0.0000E+00  0.0000E+00
     27.707  0.0000E+00  0.0000E+00  0.0000E+00
     27.819  0.0000E+00  0.0000E+00  0.0000E+00
     27.930  0.0000E+00  0.0000E+00  0.0000E+00
     28.041  0.0000E+00  0.0000E+00  0.0000E+00
     28.152  0.0000E+00  0.0000E+00  0.0000E+00
     28.263  0.0000E+00  0.0000E+00  0.0000E+00
     28.374  0.0000E+00  0.0000E+00  0.0000E+00
     28.485  0.0000E+00  0.0000E+00  0.0000E+00
     28.596  0.0000E+00  0.0000E+00  0.0000E+00
     28.707  0.0000E+00  0.0000E+00  0.0000E+00
     28.818  0.0000E+00  0.0000E+00  0.0000E+00
     28.930  0.0000E+00  0.0000E+00  0.0000E+00
     29.041  0.0000E+00  0.0000E+00  0.0000E+00
     29.152  0.0000E+00  0.0000E+00  0.0000E+00
     29.263  0.0000E+00  0.0000E+00  0.0000E+00
