   1   1   1   0
  0.1482975E+02  0.2757716E-09  0.2757716E-09  0.2757716E-09  0.5000000E-15
  1.000000000000000E-004
  CAR 
 unknown system                          
     29.56713473     -4.06790353  301      4.93174840      1.00000000
     -4.068  0.0000E+00  0.0000E+00
     -3.956  0.0000E+00  0.0000E+00
     -3.844  0.0000E+00  0.0000E+00
     -3.732 -0.1456E-30 -0.1633E-31
     -3.619 -0.1114E-26 -0.1249E-27
     -3.507 -0.4519E-23 -0.5067E-24
     -3.395 -0.9718E-20 -0.1090E-20
     -3.283 -0.1107E-16 -0.1242E-17
     -3.171 -0.6446E-14 -0.7239E-15
     -3.059 -0.2031E-11 -0.2285E-12
     -2.947 -0.3354E-09 -0.3784E-10
     -2.835 -0.2883E-07 -0.3271E-08
     -2.723 -0.1275E-05 -0.1462E-06
     -2.610 -0.2835E-04 -0.3325E-05
     -2.498 -0.3013E-03 -0.3710E-04
     -2.386 -0.1306E-02 -0.1835E-03
     -2.274 -0.3590E-03 -0.2238E-03
     -2.162  0.1164E-01  0.1081E-02
     -2.050  0.2691E-01  0.4099E-02
     -1.938  0.2170E-01  0.6532E-02
     -1.826  0.2909E-01  0.9794E-02
     -1.713  0.7562E-01  0.1827E-01
     -1.601  0.8257E-01  0.2753E-01
     -1.489  0.5366E-01  0.3355E-01
     -1.377  0.7272E-01  0.4170E-01
     -1.265  0.8124E-01  0.5081E-01
     -1.153  0.6983E-01  0.5864E-01
     -1.041  0.1010E+00  0.6996E-01
     -0.929  0.1092E+00  0.8220E-01
     -0.817  0.1295E+00  0.9672E-01
     -0.704  0.1975E+00  0.1189E+00
     -0.592  0.1744E+00  0.1384E+00
     -0.480  0.9928E-01  0.1496E+00
     -0.368  0.2138E+00  0.1735E+00
     -0.256  0.5964E+00  0.2404E+00
     -0.144  0.1021E+01  0.3549E+00
     -0.032  0.1386E+01  0.5103E+00
      0.080  0.1594E+01  0.6890E+00
      0.193  0.1775E+01  0.8880E+00
      0.305  0.2320E+01  0.1148E+01
      0.417  0.2540E+01  0.1433E+01
      0.529  0.2126E+01  0.1671E+01
      0.641  0.1935E+01  0.1888E+01
      0.753  0.1940E+01  0.2106E+01
      0.865  0.1778E+01  0.2305E+01
      0.977  0.1433E+01  0.2466E+01
      1.089  0.1207E+01  0.2601E+01
      1.202  0.1563E+01  0.2776E+01
      1.314  0.1890E+01  0.2988E+01
      1.426  0.1624E+01  0.3170E+01
      1.538  0.1430E+01  0.3331E+01
      1.650  0.1565E+01  0.3506E+01
      1.762  0.1661E+01  0.3692E+01
      1.874  0.1756E+01  0.3889E+01
      1.986  0.1907E+01  0.4103E+01
      2.099  0.2131E+01  0.4342E+01
      2.211  0.2290E+01  0.4599E+01
      2.323  0.2470E+01  0.4876E+01
      2.435  0.2808E+01  0.5191E+01
      2.547  0.2847E+01  0.5510E+01
      2.659  0.2385E+01  0.5777E+01
      2.771  0.1842E+01  0.5984E+01
      2.883  0.1682E+01  0.6172E+01
      2.995  0.1837E+01  0.6378E+01
      3.108  0.1690E+01  0.6567E+01
      3.220  0.1283E+01  0.6711E+01
      3.332  0.1359E+01  0.6864E+01
      3.444  0.2002E+01  0.7088E+01
      3.556  0.2460E+01  0.7364E+01
      3.668  0.2218E+01  0.7613E+01
      3.780  0.1653E+01  0.7798E+01
      3.892  0.1509E+01  0.7967E+01
      4.005  0.1875E+01  0.8177E+01
      4.117  0.1930E+01  0.8394E+01
      4.229  0.1458E+01  0.8557E+01
      4.341  0.1354E+01  0.8709E+01
      4.453  0.1804E+01  0.8911E+01
      4.565  0.1932E+01  0.9128E+01
      4.677  0.1867E+01  0.9337E+01
      4.789  0.2394E+01  0.9606E+01
      4.901  0.2820E+01  0.9922E+01
      5.014  0.2271E+01  0.1018E+02
      5.126  0.1541E+01  0.1035E+02
      5.238  0.1062E+01  0.1047E+02
      5.350  0.5407E+00  0.1053E+02
      5.462  0.1968E+00  0.1055E+02
      5.574  0.9997E-01  0.1056E+02
      5.686  0.5685E-01  0.1057E+02
      5.798  0.1873E-01  0.1057E+02
      5.910  0.5537E-01  0.1058E+02
      6.023  0.2093E+00  0.1060E+02
      6.135  0.4401E+00  0.1065E+02
      6.247  0.5029E+00  0.1071E+02
      6.359  0.3734E+00  0.1075E+02
      6.471  0.2522E+00  0.1078E+02
      6.583  0.1497E+00  0.1079E+02
      6.695  0.7364E-01  0.1080E+02
      6.807  0.1231E+00  0.1081E+02
      6.920  0.2909E+00  0.1085E+02
      7.032  0.3609E+00  0.1089E+02
      7.144  0.3541E+00  0.1093E+02
      7.256  0.3374E+00  0.1097E+02
      7.368  0.2076E+00  0.1099E+02
      7.480  0.1160E+00  0.1100E+02
      7.592  0.1794E+00  0.1102E+02
      7.704  0.2690E+00  0.1105E+02
      7.816  0.2983E+00  0.1109E+02
      7.929  0.2269E+00  0.1111E+02
      8.041  0.1983E+00  0.1113E+02
      8.153  0.2208E+00  0.1116E+02
      8.265  0.1846E+00  0.1118E+02
      8.377  0.2196E+00  0.1120E+02
      8.489  0.3390E+00  0.1124E+02
      8.601  0.3850E+00  0.1128E+02
      8.713  0.4391E+00  0.1133E+02
      8.826  0.4699E+00  0.1139E+02
      8.938  0.2507E+00  0.1141E+02
      9.050  0.1486E-01  0.1142E+02
      9.162 -0.1336E-01  0.1141E+02
      9.274  0.9593E-01  0.1143E+02
      9.386  0.1990E+00  0.1145E+02
      9.498  0.2151E+00  0.1147E+02
      9.610  0.2299E+00  0.1150E+02
      9.722  0.3229E+00  0.1153E+02
      9.835  0.3997E+00  0.1158E+02
      9.947  0.3232E+00  0.1161E+02
     10.059  0.2126E+00  0.1164E+02
     10.171  0.1390E+00  0.1165E+02
     10.283  0.1087E+00  0.1167E+02
     10.395  0.1126E+00  0.1168E+02
     10.507  0.1526E+00  0.1170E+02
     10.619  0.2560E+00  0.1172E+02
     10.732  0.3141E+00  0.1176E+02
     10.844  0.2193E+00  0.1178E+02
     10.956  0.1439E+00  0.1180E+02
     11.068  0.1729E+00  0.1182E+02
     11.180  0.1233E+00  0.1183E+02
     11.292  0.4479E-01  0.1184E+02
     11.404  0.6032E-01  0.1185E+02
     11.516  0.8036E-01  0.1185E+02
     11.628  0.1188E+00  0.1187E+02
     11.741  0.2421E+00  0.1190E+02
     11.853  0.2982E+00  0.1193E+02
     11.965  0.1784E+00  0.1195E+02
     12.077  0.2688E-01  0.1195E+02
     12.189  0.6841E-01  0.1196E+02
     12.301  0.2978E+00  0.1199E+02
     12.413  0.4653E+00  0.1204E+02
     12.525  0.5315E+00  0.1210E+02
     12.637  0.5181E+00  0.1216E+02
     12.750  0.3318E+00  0.1220E+02
     12.862  0.1367E+00  0.1222E+02
     12.974  0.1378E+00  0.1223E+02
     13.086  0.3023E+00  0.1226E+02
     13.198  0.4990E+00  0.1232E+02
     13.310  0.5515E+00  0.1238E+02
     13.422  0.4268E+00  0.1243E+02
     13.534  0.2787E+00  0.1246E+02
     13.647  0.1287E+00  0.1248E+02
     13.759  0.8660E-01  0.1249E+02
     13.871  0.1921E+00  0.1251E+02
     13.983  0.2683E+00  0.1254E+02
     14.095  0.2907E+00  0.1257E+02
     14.207  0.3247E+00  0.1261E+02
     14.319  0.2938E+00  0.1264E+02
     14.431  0.2204E+00  0.1266E+02
     14.543  0.2967E+00  0.1270E+02
     14.656  0.4135E+00  0.1274E+02
     14.768  0.3956E+00  0.1279E+02
     14.880  0.2722E+00  0.1282E+02
     14.992  0.8720E-01  0.1283E+02
     15.104  0.1900E-01  0.1283E+02
     15.216  0.1535E+00  0.1285E+02
     15.328  0.3345E+00  0.1288E+02
     15.440  0.3856E+00  0.1293E+02
     15.553  0.2766E+00  0.1296E+02
     15.665  0.1744E+00  0.1298E+02
     15.777  0.3116E+00  0.1301E+02
     15.889  0.5716E+00  0.1308E+02
     16.001  0.7012E+00  0.1316E+02
     16.113  0.7750E+00  0.1324E+02
     16.225  0.6493E+00  0.1332E+02
     16.337  0.3364E+00  0.1335E+02
     16.449  0.2930E+00  0.1339E+02
     16.562  0.4241E+00  0.1343E+02
     16.674  0.4487E+00  0.1348E+02
     16.786  0.4333E+00  0.1353E+02
     16.898  0.3752E+00  0.1358E+02
     17.010  0.3385E+00  0.1361E+02
     17.122  0.5011E+00  0.1367E+02
     17.234  0.6342E+00  0.1374E+02
     17.346  0.4635E+00  0.1379E+02
     17.459  0.1964E+00  0.1381E+02
     17.571  0.4230E-01  0.1382E+02
     17.683  0.1250E+00  0.1383E+02
     17.795  0.4983E+00  0.1389E+02
     17.907  0.9138E+00  0.1399E+02
     18.019  0.9766E+00  0.1410E+02
     18.131  0.6548E+00  0.1417E+02
     18.243  0.3276E+00  0.1421E+02
     18.355  0.2791E+00  0.1424E+02
     18.468  0.4757E+00  0.1430E+02
     18.580  0.6224E+00  0.1437E+02
     18.692  0.4811E+00  0.1442E+02
     18.804  0.4307E+00  0.1447E+02
     18.916  0.6442E+00  0.1454E+02
     19.028  0.7280E+00  0.1462E+02
     19.140  0.6288E+00  0.1469E+02
     19.252  0.4970E+00  0.1475E+02
     19.365  0.4101E+00  0.1479E+02
     19.477  0.4411E+00  0.1484E+02
     19.589  0.5000E+00  0.1490E+02
     19.701  0.4108E+00  0.1495E+02
     19.813  0.2893E+00  0.1498E+02
     19.925  0.2464E+00  0.1501E+02
     20.037  0.2317E+00  0.1503E+02
     20.149  0.4033E+00  0.1508E+02
     20.261  0.7134E+00  0.1516E+02
     20.374  0.7581E+00  0.1524E+02
     20.486  0.6045E+00  0.1531E+02
     20.598  0.6421E+00  0.1538E+02
     20.710  0.7094E+00  0.1546E+02
     20.822  0.5783E+00  0.1553E+02
     20.934  0.5139E+00  0.1558E+02
     21.046  0.4864E+00  0.1564E+02
     21.158  0.4022E+00  0.1568E+02
     21.270  0.3118E+00  0.1572E+02
     21.383  0.2719E+00  0.1575E+02
     21.495  0.5547E+00  0.1581E+02
     21.607  0.9349E+00  0.1592E+02
     21.719  0.8380E+00  0.1601E+02
     21.831  0.3677E+00  0.1605E+02
     21.943  0.1251E+00  0.1606E+02
     22.055  0.2299E+00  0.1609E+02
     22.167  0.3909E+00  0.1613E+02
     22.280  0.6024E+00  0.1620E+02
     22.392  0.8423E+00  0.1630E+02
     22.504  0.7877E+00  0.1638E+02
     22.616  0.5821E+00  0.1645E+02
     22.728  0.4577E+00  0.1650E+02
     22.840  0.4162E+00  0.1655E+02
     22.952  0.5722E+00  0.1661E+02
     23.064  0.7246E+00  0.1669E+02
     23.176  0.6464E+00  0.1677E+02
     23.289  0.4424E+00  0.1682E+02
     23.401  0.3161E+00  0.1685E+02
     23.513  0.5175E+00  0.1691E+02
     23.625  0.7771E+00  0.1700E+02
     23.737  0.6265E+00  0.1707E+02
     23.849  0.3479E+00  0.1710E+02
     23.961  0.3215E+00  0.1714E+02
     24.073  0.3892E+00  0.1718E+02
     24.186  0.3793E+00  0.1723E+02
     24.298  0.3439E+00  0.1727E+02
     24.410  0.3373E+00  0.1730E+02
     24.522  0.3749E+00  0.1735E+02
     24.634  0.4139E+00  0.1739E+02
     24.746  0.3526E+00  0.1743E+02
     24.858  0.2105E+00  0.1746E+02
     24.970  0.1130E+00  0.1747E+02
     25.082  0.1282E+00  0.1748E+02
     25.195  0.1641E+00  0.1750E+02
     25.307  0.1389E+00  0.1752E+02
     25.419  0.2534E+00  0.1754E+02
     25.531  0.4718E+00  0.1760E+02
     25.643  0.4309E+00  0.1765E+02
     25.755  0.2627E+00  0.1768E+02
     25.867  0.2466E+00  0.1770E+02
     25.979  0.2503E+00  0.1773E+02
     26.092  0.2167E+00  0.1776E+02
     26.204  0.1488E+00  0.1777E+02
     26.316  0.9276E-01  0.1778E+02
     26.428  0.7705E-01  0.1779E+02
     26.540  0.4129E-01  0.1780E+02
     26.652  0.7302E-01  0.1780E+02
     26.764  0.1899E+00  0.1783E+02
     26.876  0.2354E+00  0.1785E+02
     26.988  0.2575E+00  0.1788E+02
     27.101  0.3212E+00  0.1792E+02
     27.213  0.3143E+00  0.1795E+02
     27.325  0.2341E+00  0.1798E+02
     27.437  0.1254E+00  0.1799E+02
     27.549  0.4700E-01  0.1800E+02
     27.661  0.2136E-01  0.1800E+02
     27.773  0.7469E-02  0.1800E+02
     27.885 -0.1142E-02  0.1800E+02
     27.997 -0.1371E-02  0.1800E+02
     28.110 -0.3039E-03  0.1800E+02
     28.222 -0.2841E-04  0.1800E+02
     28.334 -0.1276E-05  0.1800E+02
     28.446 -0.2884E-07  0.1800E+02
     28.558 -0.3354E-09  0.1800E+02
     28.670 -0.2031E-11  0.1800E+02
     28.782 -0.6437E-14  0.1800E+02
     28.894 -0.1547E-16  0.1800E+02
     29.007  0.0000E+00  0.1800E+02
     29.119  0.0000E+00  0.1800E+02
     29.231  0.0000E+00  0.1800E+02
     29.343  0.0000E+00  0.1800E+02
     29.455  0.0000E+00  0.1800E+02
     29.567  0.0000E+00  0.1800E+02
     29.56713473     -4.06790353  301      4.93174840      1.00000000
     -4.068  0.0000E+00  0.0000E+00  0.0000E+00
     -3.956  0.0000E+00  0.0000E+00  0.0000E+00
     -3.844  0.0000E+00  0.0000E+00  0.0000E+00
     -3.732 -0.1087E-30 -0.1575E-32 -0.6125E-34
     -3.619 -0.8314E-27 -0.1204E-28 -0.4684E-30
     -3.507 -0.3373E-23 -0.4886E-25 -0.1900E-26
     -3.395 -0.7255E-20 -0.1051E-21 -0.4087E-23
     -3.283 -0.8261E-17 -0.1197E-18 -0.4654E-20
     -3.171 -0.4812E-14 -0.6970E-16 -0.2711E-17
     -3.059 -0.1516E-11 -0.2196E-13 -0.8542E-15
     -2.947 -0.2504E-09 -0.3627E-11 -0.1411E-12
     -2.835 -0.2153E-07 -0.3118E-09 -0.1213E-10
     -2.723 -0.9519E-06 -0.1379E-07 -0.5362E-09
     -2.610 -0.2117E-04 -0.3066E-06 -0.1193E-07
     -2.498 -0.2249E-03 -0.3259E-05 -0.1268E-06
     -2.386 -0.9750E-03 -0.1417E-04 -0.5558E-06
     -2.274 -0.2668E-03 -0.5029E-05 -0.3241E-06
     -2.162  0.8707E-02  0.1111E-03  0.2665E-05
     -2.050  0.2018E-01  0.2084E-03 -0.1173E-05
     -1.938  0.1632E-01  0.1309E-03 -0.6938E-05
     -1.826  0.2106E-01  0.9206E-03  0.9878E-04
     -1.713  0.5424E-01  0.2860E-02  0.3119E-03
     -1.601  0.5926E-01  0.3089E-02  0.3273E-03
     -1.489  0.3779E-01  0.2523E-02  0.4996E-03
     -1.377  0.4986E-01  0.4384E-02  0.1206E-02
     -1.265  0.5558E-01  0.4950E-02  0.1450E-02
     -1.153  0.4641E-01  0.4992E-02  0.1999E-02
     -1.041  0.6560E-01  0.8257E-02  0.3451E-02
     -0.929  0.7060E-01  0.9344E-02  0.3636E-02
     -0.817  0.8111E-01  0.1256E-01  0.5811E-02
     -0.704  0.1223E+00  0.2011E-01  0.9710E-02
     -0.592  0.1100E+00  0.1809E-01  0.5908E-02
     -0.480  0.5523E-01  0.8791E-02  0.1372E-01
     -0.368  0.6565E-01  0.1070E-01  0.1039E+00
     -0.256  0.1659E+00  0.2868E-01  0.3148E+00
     -0.144  0.2425E+00  0.4453E-01  0.5966E+00
     -0.032  0.2766E+00  0.5755E-01  0.8785E+00
      0.080  0.2727E+00  0.6505E-01  0.1069E+01
      0.193  0.2303E+00  0.6894E-01  0.1284E+01
      0.305  0.2629E+00  0.9523E-01  0.1719E+01
      0.417  0.2797E+00  0.1100E+00  0.1887E+01
      0.529  0.1821E+00  0.9272E-01  0.1645E+01
      0.641  0.1121E+00  0.9022E-01  0.1557E+01
      0.753  0.1015E+00  0.9696E-01  0.1562E+01
      0.865  0.8309E-01  0.9235E-01  0.1439E+01
      0.977  0.5995E-01  0.8252E-01  0.1160E+01
      1.089  0.3687E-01  0.8087E-01  0.9835E+00
      1.202  0.2610E-01  0.1102E+00  0.1293E+01
      1.314  0.2854E-01  0.1320E+00  0.1561E+01
      1.426  0.2608E-01  0.1059E+00  0.1345E+01
      1.538  0.2346E-01  0.7348E-01  0.1218E+01
      1.650  0.2976E-01  0.7222E-01  0.1347E+01
      1.762  0.3487E-01  0.8521E-01  0.1415E+01
      1.874  0.3058E-01  0.9516E-01  0.1501E+01
      1.986  0.3081E-01  0.1172E+00  0.1625E+01
      2.099  0.5137E-01  0.1418E+00  0.1788E+01
      2.211  0.6556E-01  0.1303E+00  0.1939E+01
      2.323  0.5445E-01  0.1076E+00  0.2157E+01
      2.435  0.4221E-01  0.1194E+00  0.2486E+01
      2.547  0.4120E-01  0.1442E+00  0.2495E+01
      2.659  0.4201E-01  0.1412E+00  0.2055E+01
      2.771  0.3790E-01  0.1252E+00  0.1558E+01
      2.883  0.3510E-01  0.1224E+00  0.1412E+01
      2.995  0.3727E-01  0.1220E+00  0.1560E+01
      3.108  0.3428E-01  0.9520E-01  0.1457E+01
      3.220  0.2218E-01  0.5237E-01  0.1137E+01
      3.332  0.1389E-01  0.4042E-01  0.1237E+01
      3.444  0.1764E-01  0.8079E-01  0.1800E+01
      3.556  0.2513E-01  0.1144E+00  0.2189E+01
      3.668  0.2751E-01  0.9053E-01  0.1986E+01
      3.780  0.2426E-01  0.5951E-01  0.1487E+01
      3.892  0.1707E-01  0.5266E-01  0.1370E+01
      4.005  0.1355E-01  0.5434E-01  0.1730E+01
      4.117  0.2120E-01  0.5569E-01  0.1773E+01
      4.229  0.2659E-01  0.5217E-01  0.1315E+01
      4.341  0.1841E-01  0.4127E-01  0.1240E+01
      4.453  0.1204E-01  0.3263E-01  0.1699E+01
      4.565  0.1161E-01  0.2789E-01  0.1833E+01
      4.677  0.8992E-02  0.2171E-01  0.1784E+01
      4.789  0.7847E-02  0.2253E-01  0.2302E+01
      4.901  0.8984E-02  0.2490E-01  0.2717E+01
      5.014  0.1516E-01  0.2366E-01  0.2176E+01
      5.126  0.3066E-01  0.3179E-01  0.1434E+01
      5.238  0.4481E-01  0.5221E-01  0.9208E+00
      5.350  0.4478E-01  0.6668E-01  0.3884E+00
      5.462  0.3132E-01  0.5566E-01  0.8107E-01
      5.574  0.1495E-01  0.3235E-01  0.3649E-01
      5.686  0.4501E-02  0.1423E-01  0.3081E-01
      5.798  0.6955E-03  0.3326E-02  0.1287E-01
      5.910  0.5495E-02  0.6488E-02  0.3920E-01
      6.023  0.2489E-01  0.2841E-01  0.1386E+00
      6.135  0.5549E-01  0.6435E-01  0.2818E+00
      6.247  0.6506E-01  0.8280E-01  0.3077E+00
      6.359  0.5108E-01  0.7745E-01  0.2041E+00
      6.471  0.3420E-01  0.6923E-01  0.1156E+00
      6.583  0.1248E-01  0.5890E-01  0.5228E-01
      6.695 -0.4545E-03  0.4046E-01  0.1655E-01
      6.807  0.8601E-02  0.4832E-01  0.4482E-01
      6.920  0.2969E-01  0.1036E+00  0.1116E+00
      7.032  0.4155E-01  0.1271E+00  0.1362E+00
      7.144  0.4866E-01  0.1016E+00  0.1559E+00
      7.256  0.5199E-01  0.7090E-01  0.1760E+00
      7.368  0.3433E-01  0.3599E-01  0.1158E+00
      7.480  0.2113E-01  0.2209E-01  0.6053E-01
      7.592  0.3020E-01  0.4445E-01  0.8303E-01
      7.704  0.3567E-01  0.8089E-01  0.1151E+00
      7.816  0.3158E-01  0.1021E+00  0.1192E+00
      7.929  0.2423E-01  0.8244E-01  0.8496E-01
      8.041  0.2510E-01  0.7739E-01  0.6518E-01
      8.153  0.2727E-01  0.8666E-01  0.7258E-01
      8.265  0.2008E-01  0.7125E-01  0.6384E-01
      8.377  0.2026E-01  0.9202E-01  0.6949E-01
      8.489  0.2602E-01  0.1502E+00  0.1019E+00
      8.601  0.2983E-01  0.1627E+00  0.1247E+00
      8.713  0.5247E-01  0.1559E+00  0.1612E+00
      8.826  0.6889E-01  0.1507E+00  0.1806E+00
      8.938  0.3747E-01  0.7942E-01  0.9693E-01
      9.050  0.2132E-02  0.4215E-02  0.6320E-02
      9.162 -0.1533E-02 -0.4657E-02 -0.5062E-02
      9.274  0.1513E-01  0.3361E-01  0.3324E-01
      9.386  0.2744E-01  0.7663E-01  0.6476E-01
      9.498  0.1868E-01  0.1041E+00  0.5647E-01
      9.610  0.9709E-02  0.1269E+00  0.5174E-01
      9.722  0.1913E-01  0.1547E+00  0.9177E-01
      9.835  0.3335E-01  0.1681E+00  0.1288E+00
      9.947  0.4112E-01  0.1191E+00  0.1073E+00
     10.059  0.4062E-01  0.6429E-01  0.7133E-01
     10.171  0.2157E-01  0.4720E-01  0.4579E-01
     10.283  0.2582E-02  0.5329E-01  0.3275E-01
     10.395  0.2218E-03  0.6206E-01  0.3006E-01
     10.507  0.1251E-01  0.7235E-01  0.4189E-01
     10.619  0.3186E-01  0.1030E+00  0.7792E-01
     10.732  0.3318E-01  0.1275E+00  0.9877E-01
     10.844  0.1514E-01  0.9655E-01  0.6827E-01
     10.956  0.5034E-02  0.7417E-01  0.3903E-01
     11.068  0.5980E-02  0.9466E-01  0.4224E-01
     11.180  0.4461E-02  0.6746E-01  0.3011E-01
     11.292  0.4982E-02  0.2008E-01  0.1110E-01
     11.404  0.1325E-01  0.1850E-01  0.1518E-01
     11.516  0.1421E-01  0.2870E-01  0.2050E-01
     11.628  0.7154E-02  0.5806E-01  0.3224E-01
     11.741  0.1357E-01  0.1196E+00  0.6624E-01
     11.853  0.2899E-01  0.1336E+00  0.8003E-01
     11.965  0.2138E-01  0.7517E-01  0.4597E-01
     12.077  0.7597E-03  0.1369E-01  0.5621E-02
     12.189  0.3893E-01 -0.4426E-02  0.2747E-01
     12.301  0.1479E+00  0.6102E-02  0.1099E+00
     12.413  0.2066E+00  0.3932E-01  0.1593E+00
     12.525  0.1822E+00  0.1079E+00  0.1606E+00
     12.637  0.1434E+00  0.1453E+00  0.1430E+00
     12.750  0.9327E-01  0.9346E-01  0.8750E-01
     12.862  0.3998E-01  0.3682E-01  0.3657E-01
     12.974  0.3792E-01  0.3506E-01  0.4512E-01
     13.086  0.9306E-01  0.6706E-01  0.9676E-01
     13.198  0.1420E+00  0.1305E+00  0.1402E+00
     13.310  0.1448E+00  0.1632E+00  0.1381E+00
     13.422  0.1204E+00  0.1166E+00  0.1077E+00
     13.534  0.9028E-01  0.6047E-01  0.7869E-01
     13.647  0.4441E-01  0.2435E-01  0.3814E-01
     13.759  0.2677E-01  0.2243E-01  0.1826E-01
     13.871  0.5058E-01  0.6055E-01  0.3663E-01
     13.983  0.5703E-01  0.9778E-01  0.5400E-01
     14.095  0.4896E-01  0.1147E+00  0.6790E-01
     14.207  0.6058E-01  0.1137E+00  0.9125E-01
     14.319  0.6862E-01  0.8433E-01  0.8971E-01
     14.431  0.5705E-01  0.5797E-01  0.6523E-01
     14.543  0.6787E-01  0.9131E-01  0.7883E-01
     14.656  0.9587E-01  0.1292E+00  0.1029E+00
     14.768  0.1004E+00  0.1198E+00  0.8729E-01
     14.880  0.7254E-01  0.8125E-01  0.5421E-01
     14.992  0.2339E-01  0.2545E-01  0.1763E-01
     15.104  0.7691E-02  0.5442E-02  0.6467E-03
     15.216  0.4658E-01  0.4916E-01  0.1892E-01
     15.328  0.8593E-01  0.1113E+00  0.5609E-01
     15.440  0.8183E-01  0.1338E+00  0.8056E-01
     15.553  0.4942E-01  0.9791E-01  0.6796E-01
     15.665  0.3849E-01  0.5133E-01  0.4718E-01
     15.777  0.1032E+00  0.6439E-01  0.7668E-01
     15.889  0.1919E+00  0.1155E+00  0.1406E+00
     16.001  0.2168E+00  0.1460E+00  0.1860E+00
     16.113  0.2279E+00  0.1579E+00  0.2183E+00
     16.225  0.1959E+00  0.1235E+00  0.1855E+00
     16.337  0.1002E+00  0.6585E-01  0.9280E-01
     16.449  0.7618E-01  0.7153E-01  0.7210E-01
     16.562  0.1021E+00  0.1112E+00  0.1050E+00
     16.674  0.8055E-01  0.1443E+00  0.1073E+00
     16.786  0.4677E-01  0.1721E+00  0.9315E-01
     16.898  0.4577E-01  0.1451E+00  0.7835E-01
     17.010  0.6624E-01  0.1082E+00  0.7117E-01
     17.122  0.9696E-01  0.1625E+00  0.1019E+00
     17.234  0.1041E+00  0.2130E+00  0.1383E+00
     17.346  0.7033E-01  0.1486E+00  0.1154E+00
     17.459  0.3248E-01  0.5500E-01  0.5627E-01
     17.571  0.9700E-02  0.8158E-02  0.1434E-01
     17.683  0.2023E-01  0.3919E-01  0.3122E-01
     17.795  0.6994E-01  0.1726E+00  0.1126E+00
     17.907  0.1281E+00  0.3234E+00  0.1985E+00
     18.019  0.1503E+00  0.3307E+00  0.2209E+00
     18.131  0.1111E+00  0.2018E+00  0.1649E+00
     18.243  0.5489E-01  0.9944E-01  0.8443E-01
     18.355  0.3693E-01  0.9541E-01  0.6479E-01
     18.468  0.3885E-01  0.1758E+00  0.1113E+00
     18.580  0.2540E-01  0.2634E+00  0.1252E+00
     18.692  0.1198E-01  0.2225E+00  0.7850E-01
     18.804  0.3460E-01  0.1581E+00  0.9788E-01
     18.916  0.7411E-01  0.1970E+00  0.1792E+00
     19.028  0.8177E-01  0.2417E+00  0.1865E+00
     19.140  0.5749E-01  0.2444E+00  0.1310E+00
     19.252  0.3689E-01  0.2074E+00  0.8717E-01
     19.365  0.3282E-01  0.1608E+00  0.7329E-01
     19.477  0.3809E-01  0.1596E+00  0.9258E-01
     19.589  0.4267E-01  0.1771E+00  0.1159E+00
     19.701  0.3152E-01  0.1520E+00  0.9387E-01
     19.813  0.1615E-01  0.1157E+00  0.6118E-01
     19.925  0.9449E-02  0.1028E+00  0.4962E-01
     20.037  0.7299E-02  0.1002E+00  0.4392E-01
     20.149  0.1532E-01  0.1692E+00  0.8266E-01
     20.261  0.2948E-01  0.2947E+00  0.1507E+00
     20.374  0.3763E-01  0.2947E+00  0.1677E+00
     20.486  0.4184E-01  0.2009E+00  0.1482E+00
     20.598  0.4590E-01  0.2147E+00  0.1514E+00
     20.710  0.4369E-01  0.2589E+00  0.1519E+00
     20.822  0.3785E-01  0.1960E+00  0.1301E+00
     20.934  0.3974E-01  0.1341E+00  0.1380E+00
     21.046  0.3387E-01  0.1153E+00  0.1381E+00
     21.158  0.1973E-01  0.1055E+00  0.1055E+00
     21.270  0.1171E-01  0.9026E-01  0.7407E-01
     21.383  0.1199E-01  0.8618E-01  0.6611E-01
     21.495  0.2841E-01  0.1872E+00  0.1347E+00
     21.607  0.4433E-01  0.3109E+00  0.2165E+00
     21.719  0.3379E-01  0.2752E+00  0.1839E+00
     21.831  0.1146E-01  0.1209E+00  0.7443E-01
     21.943  0.2891E-02  0.2641E-01  0.2247E-01
     22.055  0.8825E-02  0.3572E-01  0.4873E-01
     22.167  0.1484E-01  0.7832E-01  0.8686E-01
     22.280  0.1299E-01  0.1469E+00  0.1185E+00
     22.392  0.1186E-01  0.2235E+00  0.1418E+00
     22.504  0.1463E-01  0.2116E+00  0.1284E+00
     22.616  0.1372E-01  0.1422E+00  0.1013E+00
     22.728  0.7101E-02  0.1012E+00  0.8195E-01
     22.840  0.3802E-02  0.9489E-01  0.9040E-01
     22.952  0.1011E-01  0.1198E+00  0.1371E+00
     23.064  0.1950E-01  0.1467E+00  0.1502E+00
     23.176  0.2169E-01  0.1389E+00  0.1205E+00
     23.289  0.1447E-01  0.1060E+00  0.8482E-01
     23.401  0.7801E-02  0.8054E-01  0.5556E-01
     23.513  0.1441E-01  0.1189E+00  0.8430E-01
     23.625  0.2306E-01  0.1637E+00  0.1336E+00
     23.737  0.1654E-01  0.1116E+00  0.1129E+00
     23.849  0.8044E-02  0.4755E-01  0.6098E-01
     23.961  0.1142E-01  0.5455E-01  0.4714E-01
     24.073  0.1574E-01  0.7070E-01  0.5466E-01
     24.186  0.1180E-01  0.6031E-01  0.5182E-01
     24.298  0.5832E-02  0.5213E-01  0.4959E-01
     24.410  0.5562E-02  0.4644E-01  0.5391E-01
     24.522  0.1171E-01  0.6902E-01  0.4802E-01
     24.634  0.1608E-01  0.1329E+00  0.3912E-01
     24.746  0.1217E-01  0.1458E+00  0.3477E-01
     24.858  0.6369E-02  0.7650E-01  0.2635E-01
     24.970  0.4048E-02  0.2237E-01  0.1555E-01
     25.082  0.3319E-02  0.3804E-01  0.1374E-01
     25.195  0.2762E-02  0.6328E-01  0.1754E-01
     25.307  0.2580E-02  0.4586E-01  0.1536E-01
     25.419  0.5951E-02  0.5883E-01  0.2984E-01
     25.531  0.1063E-01  0.1188E+00  0.5791E-01
     25.643  0.1004E-01  0.1149E+00  0.5111E-01
     25.755  0.7583E-02  0.6851E-01  0.2714E-01
     25.867  0.7531E-02  0.7195E-01  0.2262E-01
     25.979  0.5713E-02  0.9313E-01  0.2336E-01
     26.092  0.2814E-02  0.9291E-01  0.2359E-01
     26.204  0.9928E-03  0.6434E-01  0.1972E-01
     26.316  0.3909E-04  0.4281E-01  0.1460E-01
     26.428 -0.1570E-03  0.3963E-01  0.1273E-01
     26.540  0.9123E-05  0.2045E-01  0.6427E-02
     26.652  0.3629E-03  0.1713E-01  0.5883E-02
     26.764  0.5652E-03  0.4822E-01  0.1528E-01
     26.876  0.4649E-03  0.8286E-01  0.2007E-01
     26.988  0.7818E-03  0.1333E+00  0.2621E-01
     27.101  0.1452E-02  0.1652E+00  0.3472E-01
     27.213  0.1435E-02  0.1283E+00  0.2914E-01
     27.325  0.6445E-03  0.7813E-01  0.1816E-01
     27.437  0.4690E-04  0.4285E-01  0.9305E-02
     27.549 -0.3888E-04  0.2188E-01  0.2148E-02
     27.661  0.5998E-05  0.1392E-01 -0.4012E-03
     27.773  0.7911E-05  0.5193E-02 -0.2931E-03
     27.885 -0.4511E-06 -0.4736E-03 -0.7416E-04
     27.997 -0.1132E-05 -0.7586E-03 -0.1697E-04
     28.110 -0.2599E-06 -0.1706E-03 -0.2807E-05
     28.222 -0.2445E-07 -0.1599E-04 -0.2469E-06
     28.334 -0.1099E-08 -0.7183E-06 -0.1094E-07
     28.446 -0.2486E-10 -0.1624E-07 -0.2464E-09
     28.558 -0.2892E-12 -0.1889E-09 -0.2864E-11
     28.670 -0.1751E-14 -0.1144E-11 -0.1734E-13
     28.782 -0.5549E-17 -0.3625E-14 -0.5495E-16
     28.894 -0.1334E-19 -0.8714E-17 -0.1321E-18
     29.007  0.0000E+00  0.0000E+00  0.0000E+00
     29.119  0.0000E+00  0.0000E+00  0.0000E+00
     29.231  0.0000E+00  0.0000E+00  0.0000E+00
     29.343  0.0000E+00  0.0000E+00  0.0000E+00
     29.455  0.0000E+00  0.0000E+00  0.0000E+00
     29.567  0.0000E+00  0.0000E+00  0.0000E+00
