    1    1    1    1
  0.1482975E+02  0.2757716E-09  0.2757716E-09  0.2757716E-09  0.5000000E-15
  1.000000000000000E-004
  CAR 
 unknown system                          
   10   60    9
 
  0.6250000E-01  0.6250000E-01  0.6250000E-01  0.3906250E-02
   1       -2.067605
   2        2.056202
   3        2.154990
   4        2.154990
   5        3.686047
   6        3.686047
   7       23.277095
   8       26.696211
   9       27.166515
 
  0.1875000E+00  0.6250000E-01  0.6250000E-01  0.1171875E-01
   1       -1.365304
   2        1.821765
   3        2.367830
   4        2.391934
   5        3.465644
   6        3.803135
   7       23.194086
   8       24.243213
   9       27.193556
 
  0.3125000E+00  0.6250000E-01  0.6250000E-01  0.1171875E-01
   1       -0.282657
   2        2.050044
   3        2.405722
   4        2.447221
   5        3.706403
   6        4.354384
   7       18.832955
   8       23.646813
   9       26.998982
 
  0.4375000E+00  0.6250000E-01  0.6250000E-01  0.1171875E-01
   1       -0.180886
   2        2.095484
   3        2.212221
   4        3.768711
   5        4.480915
   6        5.567092
   7       14.244024
   8       22.665734
   9       25.891604
 
 -0.4375000E+00  0.6250000E-01  0.6250000E-01  0.1171875E-01
   1       -0.249449
   2        1.985410
   3        2.148387
   4        4.240263
   5        4.906148
   6        6.586836
   7       12.284450
   8       22.363734
   9       26.047891
 
 -0.3125000E+00  0.6250000E-01  0.6250000E-01  0.1171875E-01
   1       -0.152751
   2        2.149774
   3        2.319592
   4        3.099997
   5        4.609325
   6        4.793304
   7       15.672855
   8       23.062112
   9       26.361444
 
 -0.1875000E+00  0.6250000E-01  0.6250000E-01  0.1171875E-01
   1       -0.574043
   2        1.790888
   3        2.439028
   4        2.495161
   5        3.637986
   6        4.004575
   7       20.428180
   8       24.128406
   9       27.038992
 
 -0.6250000E-01  0.6250000E-01  0.6250000E-01  0.1171875E-01
   1       -1.703205
   2        1.880828
   3        2.305586
   4        2.311160
   5        3.495322
   6        3.779383
   7       23.515019
   8       25.393874
   9       27.262866
 
  0.1875000E+00  0.1875000E+00  0.6250000E-01  0.1171875E-01
   1       -1.033309
   2        1.544193
   3        2.588138
   4        2.615894
   5        3.242342
   6        3.954478
   7       23.580646
   8       24.473121
   9       26.093198
 
  0.3125000E+00  0.1875000E+00  0.6250000E-01  0.2343750E-01
   1       -0.023663
   2        1.247483
   3        2.387287
   4        2.992583
   5        3.617913
   6        4.480475
   7       20.871767
   8       22.897083
   9       25.497663
 
  0.4375000E+00  0.1875000E+00  0.6250000E-01  0.2343750E-01
   1        0.304800
   2        1.768959
   3        2.135516
   4        2.848634
   5        4.574238
   6        6.130196
   7       16.019547
   8       22.253350
   9       23.606251
 
 -0.4375000E+00  0.1875000E+00  0.6250000E-01  0.2343750E-01
   1        0.236304
   2        1.601434
   3        2.618521
   4        2.972013
   5        4.839133
   6        8.544712
   7       12.325272
   8       21.658075
   9       23.056903
 
 -0.3125000E+00  0.1875000E+00  0.6250000E-01  0.2343750E-01
   1        0.356290
   2        1.748123
   3        2.486843
   4        2.770989
   5        4.367715
   6        7.147384
   7       14.602189
   8       21.155066
   9       23.940773
 
 -0.1875000E+00  0.1875000E+00  0.6250000E-01  0.2343750E-01
   1        0.333991
   2        1.449100
   3        2.187948
   4        2.946912
   5        3.462363
   6        5.197922
   7       19.280691
   8       21.476939
   9       25.799435
 
 -0.6250000E-01  0.1875000E+00  0.6250000E-01  0.2343750E-01
   1       -0.747696
   2        1.586086
   3        2.490055
   4        2.614869
   5        3.342070
   6        4.063382
   7       22.124194
   8       23.696001
   9       26.762556
 
  0.3125000E+00  0.3125000E+00  0.6250000E-01  0.1171875E-01
   1        0.179549
   2        0.706829
   3        3.045325
   4        3.575059
   5        4.169876
   6        4.453697
   7       21.223205
   8       22.379815
   9       22.926266
 
  0.4375000E+00  0.3125000E+00  0.6250000E-01  0.2343750E-01
   1        0.286332
   2        0.554549
   3        2.947399
   4        3.991311
   5        4.649387
   6        6.396896
   7       18.277963
   8       20.258302
   9       20.596433
 
 -0.4375000E+00  0.3125000E+00  0.6250000E-01  0.2343750E-01
   1        0.388833
   2        0.977142
   3        2.560226
   4        3.626679
   5        4.916373
   6        9.771745
   7       13.840759
   8       18.441108
   9       20.673367
 
 -0.3125000E+00  0.3125000E+00  0.6250000E-01  0.2343750E-01
   1        0.832635
   2        1.398559
   3        1.995691
   4        3.369832
   5        4.413326
   6       10.000763
   7       14.192395
   8       16.977797
   9       22.362062
 
 -0.1875000E+00  0.3125000E+00  0.6250000E-01  0.2343750E-01
   1        0.918023
   2        1.590982
   3        1.787649
   4        3.135431
   5        3.886731
   6        7.252103
   7       16.607938
   8       18.896879
   9       24.066646
 
 -0.6250000E-01  0.3125000E+00  0.6250000E-01  0.2343750E-01
   1        0.041105
   2        2.106255
   3        2.219405
   4        2.568655
   5        4.051329
   6        5.021469
   7       17.371384
   8       23.023785
   9       25.541400
 
  0.4375000E+00  0.4375000E+00  0.6250000E-01  0.1171875E-01
   1       -0.184712
   2        0.067032
   3        4.481501
   4        4.558631
   5        4.965434
   6        7.010580
   7       17.819331
   8       18.583379
   9       19.359917
 
 -0.4375000E+00  0.4375000E+00  0.6250000E-01  0.2343750E-01
   1       -0.134561
   2        0.151066
   3        3.975027
   4        4.527461
   5        5.132006
   6        9.548351
   7       15.836838
   8       16.754209
   9       18.546165
 
 -0.3125000E+00  0.4375000E+00  0.6250000E-01  0.2343750E-01
   1        0.306799
   2        0.836732
   3        2.778414
   4        3.895348
   5        4.867193
   6       11.704811
   7       13.274645
   8       16.183218
   9       20.256739
 
 -0.1875000E+00  0.4375000E+00  0.6250000E-01  0.2343750E-01
   1        0.594472
   2        1.371135
   3        2.460116
   4        3.009846
   5        4.670848
   6        9.780757
   7       12.526255
   8       19.455412
   9       22.511480
 
 -0.6250000E-01  0.4375000E+00  0.6250000E-01  0.2343750E-01
   1       -0.043499
   2        1.883599
   3        2.334959
   4        3.471020
   5        4.767397
   6        6.900885
   7       13.092289
   8       22.375384
   9       24.645808
 
 -0.4375000E+00 -0.4375000E+00  0.6250000E-01  0.1171875E-01
   1       -0.355116
   2       -0.075192
   3        4.775246
   4        4.861822
   5        5.152966
   6        8.431545
   7       15.906740
   8       17.886717
   9       18.644487
 
 -0.3125000E+00 -0.4375000E+00  0.6250000E-01  0.2343750E-01
   1        0.034761
   2        0.287738
   3        3.548851
   4        4.399704
   5        4.935633
   6        8.052475
   7       17.140690
   8       18.046853
   9       19.158859
 
 -0.1875000E+00 -0.4375000E+00  0.6250000E-01  0.2343750E-01
   1        0.423548
   2        1.302640
   3        2.292443
   4        3.232176
   5        4.856800
   6        7.780986
   7       14.805781
   8       20.990543
   9       21.517739
 
 -0.3125000E+00 -0.3125000E+00  0.6250000E-01  0.1171875E-01
   1        0.073598
   2        0.338019
   3        3.806859
   4        4.118802
   5        4.718283
   6        5.384662
   7       19.760939
   8       20.458204
   9       20.665964
 
 -0.1875000E+00 -0.3125000E+00  0.6250000E-01  0.2343750E-01
   1        0.392204
   2        0.893796
   3        2.435692
   4        3.469957
   5        4.199658
   6        5.163415
   7       19.570638
   8       21.626375
   9       23.217362
 
 -0.1875000E+00 -0.1875000E+00  0.6250000E-01  0.1171875E-01
   1       -0.251628
   2        1.128435
   3        2.718321
   4        3.050146
   5        3.424645
   6        4.189112
   7       22.597880
   8       24.288026
   9       24.377759
 
  0.1875000E+00  0.1875000E+00  0.1875000E+00  0.3906250E-02
   1       -1.079406
   2        1.866959
   3        2.392551
   4        2.392551
   5        3.671280
   6        3.671280
   7       21.867322
   8       24.265034
   9       27.019663
 
  0.3125000E+00  0.1875000E+00  0.1875000E+00  0.1171875E-01
   1       -0.241986
   2        1.572966
   3        2.422825
   4        2.710534
   5        3.256517
   6        4.511785
   7       20.645147
   8       22.642928
   9       27.140000
 
  0.4375000E+00  0.1875000E+00  0.1875000E+00  0.1171875E-01
   1        0.667423
   2        1.601363
   3        2.101695
   4        2.887708
   5        3.507005
   6        6.108859
   7       17.870549
   8       20.123127
   9       25.553659
 
 -0.4375000E+00  0.1875000E+00  0.1875000E+00  0.1171875E-01
   1        0.447471
   2        1.605880
   3        2.706232
   4        2.726064
   5        4.438505
   6        8.354330
   7       13.417477
   8       20.173399
   9       24.490590
 
 -0.3125000E+00  0.1875000E+00  0.1875000E+00  0.1171875E-01
   1        0.291081
   2        1.535498
   3        2.616881
   4        2.816552
   5        4.952889
   6        8.181244
   7       13.240284
   8       21.247324
   9       23.525506
 
 -0.1875000E+00  0.1875000E+00  0.1875000E+00  0.1171875E-01
   1        0.310539
   2        1.301519
   3        2.278889
   4        3.044469
   5        4.717888
   6        5.317924
   7       17.689030
   8       22.931372
   9       23.283164
 
  0.3125000E+00  0.3125000E+00  0.1875000E+00  0.1171875E-01
   1       -0.014733
   2        1.600332
   3        2.289589
   4        2.711715
   5        4.178991
   6        4.379319
   7       19.041807
   8       23.864840
   9       25.155428
 
  0.4375000E+00  0.3125000E+00  0.1875000E+00  0.2343750E-01
   1        0.700248
   2        1.280085
   3        1.907239
   4        3.352587
   5        3.971443
   6        6.166651
   7       17.995758
   8       20.252355
   9       23.525218
 
 -0.4375000E+00  0.3125000E+00  0.1875000E+00  0.2343750E-01
   1        1.075271
   2        1.258929
   3        1.684031
   4        3.485970
   5        4.373474
   6        8.748494
   7       15.478695
   8       17.897337
   9       21.531335
 
 -0.3125000E+00  0.3125000E+00  0.1875000E+00  0.2343750E-01
   1        0.782398
   2        1.145384
   3        2.124007
   4        3.385464
   5        4.802711
   6       10.738436
   7       12.692987
   8       18.982972
   9       19.865074
 
 -0.1875000E+00  0.3125000E+00  0.1875000E+00  0.2343750E-01
   1        0.647968
   2        0.966571
   3        2.131139
   4        3.797516
   5        4.461078
   6        7.560665
   7       16.811010
   8       19.101807
   9       20.928112
 
  0.4375000E+00  0.4375000E+00  0.1875000E+00  0.1171875E-01
   1        0.289810
   2        0.896552
   3        2.698946
   4        3.463652
   5        4.950545
   6        6.899041
   7       16.415486
   8       20.711748
   9       21.716744
 
 -0.4375000E+00  0.4375000E+00  0.1875000E+00  0.2343750E-01
   1        0.421803
   2        0.698968
   3        2.579515
   4        4.058679
   5        4.858035
   6        9.330836
   7       15.843939
   8       18.004128
   9       18.524559
 
 -0.3125000E+00  0.4375000E+00  0.1875000E+00  0.2343750E-01
   1        0.614269
   2        1.177757
   3        1.974965
   4        3.685792
   5        5.122013
   6       12.571725
   7       14.012935
   8       16.127829
   9       17.202813
 
 -0.1875000E+00  0.4375000E+00  0.1875000E+00  0.2343750E-01
   1        0.824978
   2        1.187385
   3        1.814538
   4        3.668601
   5        4.825070
   6       10.612220
   7       14.556628
   8       17.173330
   9       18.880033
 
 -0.4375000E+00 -0.4375000E+00  0.1875000E+00  0.1171875E-01
   1        0.001602
   2        0.417993
   3        3.550199
   4        4.250995
   5        4.976259
   6       10.420728
   7       14.762353
   8       16.091705
   9       20.006371
 
 -0.3125000E+00 -0.4375000E+00  0.1875000E+00  0.2343750E-01
   1        0.247563
   2        0.581418
   3        2.927793
   4        4.082942
   5        5.124232
   6       11.032707
   7       15.238301
   8       16.122530
   9       17.846206
 
 -0.3125000E+00 -0.3125000E+00  0.1875000E+00  0.1171875E-01
   1        0.129577
   2        0.575461
   3        3.215771
   4        3.906780
   5        5.029360
   6        8.753873
   7       15.373197
   8       18.145165
   9       20.593509
 
  0.3125000E+00  0.3125000E+00  0.3125000E+00  0.3906250E-02
   1       -0.268526
   2        2.303431
   3        2.303431
   4        2.833064
   5        4.190897
   6        4.190897
   7       17.158815
   8       23.436896
   9       26.996337
 
  0.4375000E+00  0.3125000E+00  0.3125000E+00  0.1171875E-01
   1        0.164061
   2        2.011240
   3        2.493946
   4        2.650183
   5        4.012317
   6        5.929591
   7       15.898835
   8       22.056982
   9       25.120082
 
 -0.4375000E+00  0.3125000E+00  0.3125000E+00  0.1171875E-01
   1        0.910490
   2        1.564183
   3        1.991636
   4        3.106590
   5        4.056010
   6        8.488231
   7       15.356486
   8       17.766588
   9       24.872415
 
 -0.3125000E+00  0.3125000E+00  0.3125000E+00  0.1171875E-01
   1        0.496210
   2        1.201990
   3        2.434231
   4        3.597251
   5        4.585655
   6       11.415057
   7       12.944444
   8       16.436536
   9       22.361720
 
  0.4375000E+00  0.4375000E+00  0.3125000E+00  0.1171875E-01
   1        0.052907
   2        1.876281
   3        2.497799
   4        2.845134
   5        4.882094
   6        6.295071
   7       14.357364
   8       22.668917
   9       24.738056
 
 -0.4375000E+00  0.4375000E+00  0.3125000E+00  0.2343750E-01
   1        0.598740
   2        1.389289
   3        2.306634
   4        3.059465
   5        4.680729
   6        8.786808
   7       13.494270
   8       20.393175
   9       21.645471
 
 -0.3125000E+00  0.4375000E+00  0.3125000E+00  0.2343750E-01
   1        0.728118
   2        1.214899
   3        1.993685
   4        3.593287
   5        4.825312
   6       11.851614
   7       13.214460
   8       16.513196
   9       19.595557
 
 -0.4375000E+00 -0.4375000E+00  0.3125000E+00  0.1171875E-01
   1        0.459599
   2        1.281223
   3        2.486632
   4        3.225158
   5        4.819365
   6       10.234001
   7       12.473177
   8       18.809158
   9       22.740966
 
  0.4375000E+00  0.4375000E+00  0.4375000E+00  0.3906250E-02
   1       -0.320078
   2        2.092506
   3        2.092506
   4        4.802880
   5        4.802880
   6        5.309137
   7       13.009213
   8       22.450657
   9       26.873488
 
 -0.4375000E+00  0.4375000E+00  0.4375000E+00  0.1171875E-01
   1        0.018426
   2        1.796343
   3        2.371232
   4        3.480048
   5        4.769268
   6        7.771146
   7       12.312780
   8       21.998115
   9       24.582469
