    1    1    1    1
  0.1482975E+02  0.2757716E-09  0.2757716E-09  0.2757716E-09  0.5000000E-15
  1.000000000000000E-004
  CAR 
 unknown system                          
   10   60    9
 
  0.6250000E-01  0.6250000E-01  0.6250000E-01  0.3906250E-02
   1       -2.067904
   2        2.055282
   3        2.154049
   4        2.154049
   5        3.683369
   6        3.683369
   7       23.278477
   8       26.695916
   9       27.567135
 
  0.1875000E+00  0.6250000E-01  0.6250000E-01  0.1171875E-01
   1       -1.365615
   2        1.820916
   3        2.366840
   4        2.390864
   5        3.463063
   6        3.800560
   7       23.194405
   8       24.243486
   9       27.236170
 
  0.3125000E+00  0.6250000E-01  0.6250000E-01  0.1171875E-01
   1       -0.283041
   2        2.049307
   3        2.404226
   4        2.445712
   5        3.704339
   6        4.352274
   7       18.832129
   8       23.647348
   9       27.012910
 
  0.4375000E+00  0.6250000E-01  0.6250000E-01  0.1171875E-01
   1       -0.181341
   2        2.093819
   3        2.210489
   4        3.767658
   5        4.479001
   6        5.565654
   7       14.242874
   8       22.666286
   9       25.891006
 
 -0.4375000E+00  0.6250000E-01  0.6250000E-01  0.1171875E-01
   1       -0.249906
   2        1.983688
   3        2.146654
   4        4.238847
   5        4.904159
   6        6.586011
   7       12.283105
   8       22.364324
   9       26.049377
 
 -0.3125000E+00  0.6250000E-01  0.6250000E-01  0.1171875E-01
   1       -0.153203
   2        2.148084
   3        2.317953
   4        3.099118
   5        4.607246
   6        4.791765
   7       15.671803
   8       23.062724
   9       26.361171
 
 -0.1875000E+00  0.6250000E-01  0.6250000E-01  0.1171875E-01
   1       -0.574392
   2        1.790129
   3        2.437598
   4        2.493862
   5        3.635888
   6        4.002192
   7       20.427511
   8       24.129179
   9       27.055907
 
 -0.6250000E-01  0.6250000E-01  0.6250000E-01  0.1171875E-01
   1       -1.703509
   2        1.879952
   3        2.304618
   4        2.310189
   5        3.492718
   6        3.776699
   7       23.516198
   8       25.393666
   9       27.329985
 
  0.1875000E+00  0.1875000E+00  0.6250000E-01  0.1171875E-01
   1       -1.033651
   2        1.543388
   3        2.587009
   4        2.614860
   5        3.240007
   6        3.951783
   7       23.580833
   8       24.473467
   9       26.092621
 
  0.3125000E+00  0.1875000E+00  0.6250000E-01  0.2343750E-01
   1       -0.024158
   2        1.246753
   3        2.385619
   4        2.991310
   5        3.616012
   6        4.478272
   7       20.871053
   8       22.896732
   9       25.497310
 
  0.4375000E+00  0.1875000E+00  0.6250000E-01  0.2343750E-01
   1        0.304221
   2        1.767223
   3        2.134700
   4        2.846941
   5        4.572276
   6        6.128741
   7       16.018541
   8       22.252983
   9       23.605631
 
 -0.4375000E+00  0.1875000E+00  0.6250000E-01  0.2343750E-01
   1        0.235782
   2        1.599697
   3        2.616657
   4        2.970998
   5        4.837244
   6        8.543636
   7       12.324016
   8       21.657696
   9       23.056183
 
 -0.3125000E+00  0.1875000E+00  0.6250000E-01  0.2343750E-01
   1        0.355773
   2        1.746445
   3        2.485554
   4        2.769439
   5        4.365949
   6        7.145972
   7       14.601088
   8       21.154504
   9       23.940489
 
 -0.1875000E+00  0.1875000E+00  0.6250000E-01  0.2343750E-01
   1        0.333536
   2        1.448392
   3        2.186213
   4        2.945302
   5        3.460512
   6        5.196021
   7       19.279836
   8       21.476423
   9       25.799260
 
 -0.6250000E-01  0.1875000E+00  0.6250000E-01  0.2343750E-01
   1       -0.748034
   2        1.585295
   3        2.488700
   4        2.613784
   5        3.339750
   6        4.060948
   7       22.123736
   8       23.696271
   9       26.763598
 
  0.3125000E+00  0.3125000E+00  0.6250000E-01  0.1171875E-01
   1        0.178515
   2        0.706175
   3        3.044025
   4        3.573745
   5        4.168591
   6        4.451052
   7       21.222461
   8       22.379054
   9       22.925518
 
  0.4375000E+00  0.3125000E+00  0.6250000E-01  0.2343750E-01
   1        0.285070
   2        0.553748
   3        2.946358
   4        3.989533
   5        4.647298
   6        6.395668
   7       18.277139
   8       20.257566
   9       20.595255
 
 -0.4375000E+00  0.3125000E+00  0.6250000E-01  0.2343750E-01
   1        0.387777
   2        0.975897
   3        2.559395
   4        3.624499
   5        4.914655
   6        9.770684
   7       13.839799
   8       18.439811
   9       20.672538
 
 -0.3125000E+00  0.3125000E+00  0.6250000E-01  0.2343750E-01
   1        0.831598
   2        1.397228
   3        1.994925
   4        3.367421
   5        4.411977
   6        9.999576
   7       14.191440
   8       16.976559
   9       22.361217
 
 -0.1875000E+00  0.3125000E+00  0.6250000E-01  0.2343750E-01
   1        0.917455
   2        1.589903
   3        1.786197
   4        3.133249
   5        3.885328
   6        7.250584
   7       16.606928
   8       18.896025
   9       24.066258
 
 -0.6250000E-01  0.3125000E+00  0.6250000E-01  0.2343750E-01
   1        0.040647
   2        2.105362
   3        2.217779
   4        2.567070
   5        4.049458
   6        5.019629
   7       17.370436
   8       23.023908
   9       25.540919
 
  0.4375000E+00  0.4375000E+00  0.6250000E-01  0.1171875E-01
   1       -0.186231
   2        0.066478
   3        4.480356
   4        4.556334
   5        4.963511
   6        7.009895
   7       17.817744
   8       18.582677
   9       19.359301
 
 -0.4375000E+00  0.4375000E+00  0.6250000E-01  0.2343750E-01
   1       -0.136090
   2        0.150463
   3        3.973973
   4        4.524717
   5        5.130611
   6        9.547810
   7       15.835116
   8       16.753301
   9       18.545463
 
 -0.3125000E+00  0.4375000E+00  0.6250000E-01  0.2343750E-01
   1        0.305526
   2        0.835724
   3        2.777602
   4        3.892776
   5        4.865800
   6       11.704039
   7       13.273731
   8       16.181545
   9       20.255867
 
 -0.1875000E+00  0.4375000E+00  0.6250000E-01  0.2343750E-01
   1        0.593836
   2        1.369469
   3        2.459239
   4        3.007774
   5        4.669149
   6        9.779644
   7       12.525075
   8       19.454461
   9       22.510756
 
 -0.6250000E-01  0.4375000E+00  0.6250000E-01  0.2343750E-01
   1       -0.043976
   2        1.881882
   3        2.333185
   4        3.469891
   5        4.765457
   6        6.899730
   7       13.091064
   8       22.375653
   9       24.645166
 
 -0.4375000E+00 -0.4375000E+00  0.6250000E-01  0.1171875E-01
   1       -0.356661
   2       -0.075718
   3        4.772377
   4        4.860597
   5        5.151540
   6        8.431232
   7       15.904752
   8       17.886107
   9       18.643923
 
 -0.3125000E+00 -0.4375000E+00  0.6250000E-01  0.2343750E-01
   1        0.033301
   2        0.287064
   3        3.547764
   4        4.397423
   5        4.933931
   6        8.051570
   7       17.139868
   8       18.045380
   9       19.158129
 
 -0.1875000E+00 -0.4375000E+00  0.6250000E-01  0.2343750E-01
   1        0.422781
   2        1.301086
   3        2.291614
   4        3.230300
   5        4.854863
   6        7.779756
   7       14.804779
   8       20.989674
   9       21.516921
 
 -0.3125000E+00 -0.3125000E+00  0.6250000E-01  0.1171875E-01
   1        0.072197
   2        0.337416
   3        3.805808
   4        4.117151
   5        4.715837
   6        5.383609
   7       19.760214
   8       20.456942
   9       20.665270
 
 -0.1875000E+00 -0.3125000E+00  0.6250000E-01  0.2343750E-01
   1        0.391262
   2        0.893047
   3        2.434384
   4        3.468469
   5        4.197606
   6        5.161719
   7       19.569807
   8       21.625695
   9       23.216609
 
 -0.1875000E+00 -0.1875000E+00  0.6250000E-01  0.1171875E-01
   1       -0.252151
   2        1.127711
   3        2.716637
   4        3.049005
   5        3.423132
   6        4.186421
   7       22.597301
   8       24.287237
   9       24.377912
 
  0.1875000E+00  0.1875000E+00  0.1875000E+00  0.3906250E-02
   1       -1.079727
   2        1.866148
   3        2.391422
   4        2.391422
   5        3.668798
   6        3.668799
   7       21.866912
   8       24.265961
   9       27.026794
 
  0.3125000E+00  0.1875000E+00  0.1875000E+00  0.1171875E-01
   1       -0.242349
   2        1.572214
   3        2.421310
   4        2.709263
   5        3.254252
   6        4.509657
   7       20.644454
   8       22.642757
   9       27.152647
 
  0.4375000E+00  0.1875000E+00  0.1875000E+00  0.1171875E-01
   1        0.666940
   2        1.600643
   3        2.099950
   4        2.885586
   5        3.505565
   6        6.107129
   7       17.869590
   8       20.122433
   9       25.553775
 
 -0.4375000E+00  0.1875000E+00  0.1875000E+00  0.1171875E-01
   1        0.446930
   2        1.604226
   3        2.705233
   4        2.724077
   5        4.436800
   6        8.353068
   7       13.416313
   8       20.172642
   9       24.490700
 
 -0.3125000E+00  0.1875000E+00  0.1875000E+00  0.1171875E-01
   1        0.290470
   2        1.533749
   3        2.616064
   4        2.814679
   5        4.950923
   6        8.180092
   7       13.239162
   8       21.246645
   9       23.524672
 
 -0.1875000E+00  0.1875000E+00  0.1875000E+00  0.1171875E-01
   1        0.309816
   2        1.300437
   3        2.277689
   4        3.042817
   5        4.715654
   6        5.316573
   7       17.688120
   8       22.930990
   9       23.282357
 
  0.3125000E+00  0.3125000E+00  0.1875000E+00  0.1171875E-01
   1       -0.015215
   2        1.599573
   3        2.287912
   4        2.710252
   5        4.177413
   6        4.377003
   7       19.040977
   8       23.865228
   9       25.154601
 
  0.4375000E+00  0.3125000E+00  0.1875000E+00  0.2343750E-01
   1        0.699505
   2        1.279194
   3        1.905813
   4        3.350789
   5        3.969678
   6        6.165045
   7       17.994828
   8       20.251625
   9       23.524611
 
 -0.4375000E+00  0.3125000E+00  0.1875000E+00  0.2343750E-01
   1        1.074486
   2        1.257291
   3        1.683291
   4        3.483661
   5        4.372091
   6        8.747204
   7       15.477709
   8       17.896349
   9       21.530440
 
 -0.3125000E+00  0.3125000E+00  0.1875000E+00  0.2343750E-01
   1        0.781426
   2        1.143981
   3        2.123227
   4        3.383219
   5        4.801150
   6       10.737352
   7       12.691901
   8       18.981885
   9       19.864126
 
 -0.1875000E+00  0.3125000E+00  0.1875000E+00  0.2343750E-01
   1        0.646918
   2        0.965429
   3        2.130199
   4        3.795417
   5        4.459435
   6        7.559353
   7       16.810080
   8       19.100977
   9       20.927078
 
  0.4375000E+00  0.4375000E+00  0.1875000E+00  0.1171875E-01
   1        0.288851
   2        0.895367
   3        2.698050
   4        3.461773
   5        4.948435
   6        6.897864
   7       16.414593
   8       20.710674
   9       21.715976
 
 -0.4375000E+00  0.4375000E+00  0.1875000E+00  0.2343750E-01
   1        0.420359
   2        0.698157
   3        2.578609
   4        4.056226
   5        4.856605
   6        9.329796
   7       15.843062
   8       18.003102
   9       18.523326
 
 -0.3125000E+00  0.4375000E+00  0.1875000E+00  0.2343750E-01
   1        0.612565
   2        1.177097
   3        1.974236
   4        3.683245
   5        5.120649
   6       12.570928
   7       14.012071
   8       16.126525
   9       17.201418
 
 -0.1875000E+00  0.4375000E+00  0.1875000E+00  0.2343750E-01
   1        0.823280
   2        1.186685
   3        1.813798
   4        3.666136
   5        4.823716
   6       10.611129
   7       14.555707
   8       17.172248
   9       18.878817
 
 -0.4375000E+00 -0.4375000E+00  0.1875000E+00  0.1171875E-01
   1        0.000270
   2        0.417139
   3        3.549293
   4        4.248351
   5        4.974799
   6       10.420072
   7       14.761544
   8       16.089871
   9       20.005630
 
 -0.3125000E+00 -0.4375000E+00  0.1875000E+00  0.2343750E-01
   1        0.245994
   2        0.580747
   3        2.926936
   4        4.080292
   5        5.122863
   6       11.032010
   7       15.237394
   8       16.120925
   9       17.845217
 
 -0.3125000E+00 -0.3125000E+00  0.1875000E+00  0.1171875E-01
   1        0.128392
   2        0.574453
   3        3.214902
   4        3.904579
   5        5.027499
   6        8.752890
   7       15.372356
   8       18.143703
   9       20.592758
 
  0.3125000E+00  0.3125000E+00  0.3125000E+00  0.3906250E-02
   1       -0.268953
   2        2.301856
   3        2.301856
   4        2.832475
   5        4.188830
   6        4.188831
   7       17.157866
   8       23.437630
   9       26.996256
 
  0.4375000E+00  0.3125000E+00  0.3125000E+00  0.1171875E-01
   1        0.163574
   2        2.009747
   3        2.492123
   4        2.649154
   5        4.010544
   6        5.927939
   7       15.897796
   8       22.056748
   9       25.119999
 
 -0.4375000E+00  0.3125000E+00  0.3125000E+00  0.1171875E-01
   1        0.909756
   2        1.562807
   3        1.990626
   4        3.104254
   5        4.054674
   6        8.486871
   7       15.355472
   8       17.765556
   9       24.872487
 
 -0.3125000E+00  0.3125000E+00  0.3125000E+00  0.1171875E-01
   1        0.495098
   2        1.200753
   3        2.433469
   4        3.594776
   5        4.584267
   6       11.414032
   7       12.943562
   8       16.435049
   9       22.360770
 
  0.4375000E+00  0.4375000E+00  0.3125000E+00  0.1171875E-01
   1        0.052390
   2        1.874496
   3        2.496070
   4        2.844231
   5        4.880029
   6        6.293829
   7       14.356260
   8       22.669117
   9       24.737277
 
 -0.4375000E+00  0.4375000E+00  0.3125000E+00  0.2343750E-01
   1        0.598141
   2        1.387548
   3        2.305733
   4        3.057517
   5        4.678986
   6        8.785594
   7       13.493165
   8       20.392381
   9       21.644670
 
 -0.3125000E+00  0.4375000E+00  0.3125000E+00  0.2343750E-01
   1        0.726621
   2        1.214005
   3        1.992957
   4        3.590786
   5        4.823964
   6       11.850584
   7       13.213590
   8       16.511803
   9       19.594528
 
 -0.4375000E+00 -0.4375000E+00  0.3125000E+00  0.1171875E-01
   1        0.458754
   2        1.279708
   3        2.485852
   4        3.223059
   5        4.817603
   6       10.232946
   7       12.472078
   8       18.808021
   9       22.740067
 
  0.4375000E+00  0.4375000E+00  0.4375000E+00  0.3906250E-02
   1       -0.320536
   2        2.090802
   3        2.090802
   4        4.800885
   5        4.800885
   6        5.308776
   7       13.007954
   8       22.451350
   9       26.879321
 
 -0.4375000E+00  0.4375000E+00  0.4375000E+00  0.1171875E-01
   1        0.017932
   2        1.794636
   3        2.369417
   4        3.478895
   5        4.767363
   6        7.770098
   7       12.311485
   8       21.998083
   9       24.582187
