Automatically generated mesh
      60
Reciprocal lattice
    0.06250000000000    0.06250000000000    0.06250000000000            96
    0.18750000000000    0.06250000000000    0.06250000000000           288
    0.31250000000000    0.06250000000000    0.06250000000000           288
    0.43750000000000    0.06250000000000    0.06250000000000           288
   -0.43750000000000    0.06250000000000    0.06250000000000           288
   -0.31250000000000    0.06250000000000    0.06250000000000           288
   -0.18750000000000    0.06250000000000    0.06250000000000           288
   -0.06250000000000    0.06250000000000    0.06250000000000           288
    0.18750000000000    0.18750000000000    0.06250000000000           288
    0.31250000000000    0.18750000000000    0.06250000000000           576
    0.43750000000000    0.18750000000000    0.06250000000000           576
   -0.43750000000000    0.18750000000000    0.06250000000000           576
   -0.31250000000000    0.18750000000000    0.06250000000000           576
   -0.18750000000000    0.18750000000000    0.06250000000000           576
   -0.06250000000000    0.18750000000000    0.06250000000000           576
    0.31250000000000    0.31250000000000    0.06250000000000           288
    0.43750000000000    0.31250000000000    0.06250000000000           576
   -0.43750000000000    0.31250000000000    0.06250000000000           576
   -0.31250000000000    0.31250000000000    0.06250000000000           576
   -0.18750000000000    0.31250000000000    0.06250000000000           576
   -0.06250000000000    0.31250000000000    0.06250000000000           576
    0.43750000000000    0.43750000000000    0.06250000000000           288
   -0.43750000000000    0.43750000000000    0.06250000000000           576
   -0.31250000000000    0.43750000000000    0.06250000000000           576
   -0.18750000000000    0.43750000000000    0.06250000000000           576
   -0.06250000000000    0.43750000000000    0.06250000000000           576
   -0.43750000000000   -0.43750000000000    0.06250000000000           288
   -0.31250000000000   -0.43750000000000    0.06250000000000           576
   -0.18750000000000   -0.43750000000000    0.06250000000000           576
   -0.31250000000000   -0.31250000000000    0.06250000000000           288
   -0.18750000000000   -0.31250000000000    0.06250000000000           576
   -0.18750000000000   -0.18750000000000    0.06250000000000           288
    0.18750000000000    0.18750000000000    0.18750000000000            96
    0.31250000000000    0.18750000000000    0.18750000000000           288
    0.43750000000000    0.18750000000000    0.18750000000000           288
   -0.43750000000000    0.18750000000000    0.18750000000000           288
   -0.31250000000000    0.18750000000000    0.18750000000000           288
   -0.18750000000000    0.18750000000000    0.18750000000000           288
    0.31250000000000    0.31250000000000    0.18750000000000           288
    0.43750000000000    0.31250000000000    0.18750000000000           576
   -0.43750000000000    0.31250000000000    0.18750000000000           576
   -0.31250000000000    0.31250000000000    0.18750000000000           576
   -0.18750000000000    0.31250000000000    0.18750000000000           576
    0.43750000000000    0.43750000000000    0.18750000000000           288
   -0.43750000000000    0.43750000000000    0.18750000000000           576
   -0.31250000000000    0.43750000000000    0.18750000000000           576
   -0.18750000000000    0.43750000000000    0.18750000000000           576
   -0.43750000000000   -0.43750000000000    0.18750000000000           288
   -0.31250000000000   -0.43750000000000    0.18750000000000           576
   -0.31250000000000   -0.31250000000000    0.18750000000000           288
    0.31250000000000    0.31250000000000    0.31250000000000            96
    0.43750000000000    0.31250000000000    0.31250000000000           288
   -0.43750000000000    0.31250000000000    0.31250000000000           288
   -0.31250000000000    0.31250000000000    0.31250000000000           288
    0.43750000000000    0.43750000000000    0.31250000000000           288
   -0.43750000000000    0.43750000000000    0.31250000000000           576
   -0.31250000000000    0.43750000000000    0.31250000000000           576
   -0.43750000000000   -0.43750000000000    0.31250000000000           288
    0.43750000000000    0.43750000000000    0.43750000000000            96
   -0.43750000000000    0.43750000000000    0.43750000000000           288
Tetrahedra
       989    0.00004069010417
        24         1         2         8        33
        24         2         7         8        15
        24         7         8         9        15
        24         2         7         8        33
        24         9        10        15        39
        24         9        10        32        39
        24         7         9        15        39
        24        10        31        32        38
        24        16        31        32        38
        24        10        32        38        39
        24        16        17        31        44
        24        16        17        30        44
        24        16        31        38        44
        24        17        28        30        50
        24        22        28        30        50
        24        17        30        44        50
        24        22        23        28        48
        24        22        23        27        48
        24        22        28        48        50
        24        23        23        27        48
        24        23        27        27        48
        24        23        27        48        48
        24        23        27        28        50
        24        22        27        28        50
        24        23        27        48        50
        24        17        22        28        44
        24        17        22        30        44
        24        22        28        44        50
        24        17        30        31        38
        24        16        30        31        38
        24        17        30        38        44
        24        10        16        31        39
        24        10        16        32        39
        24        16        31        38        39
        24         7        10        15        32
        24         7         9        15        32
        24         7        10        32        39
        24         2         9        15        33
        24         2         8         9        33
        24         7         9        15        33
        36         2         2         8         8
        48         1         2         8         8
        24         2         2         8        33
        24         1         1         2         8
        24         1         2         2         8
        24         2         3        15        34
        24         2         3         7        15
        24         2         3         7        33
        24        14        15        21        34
        24        10        14        15        21
        24        10        15        21        39
        24         3        15        21        34
        24         3         7        15        21
        24         7        15        21        39
        24        10        11        14        40
        24        10        11        31        40
        24        10        11        31        38
        24        10        11        14        21
        24        10        11        21        39
        24        10        11        38        39
        24        29        31        40        43
        24        17        29        31        43
        24        17        29        31        44
        24        11        29        31        40
        24        11        29        31        38
        24        29        31        38        44
        24        17        18        43        45
        24        17        18        28        45
        24        17        18        28        50
        24        17        18        29        43
        24        17        18        29        44
        24        17        18        44        50
        24        24        28        45        49
        24        23        24        28        49
        24        23        24        28        48
        24        18        24        28        45
        24        18        24        28        50
        24        24        28        48        50
        24        23        24        49        49
        24        23        23        24        49
        24        23        23        24        48
        24        23        24        24        49
        24        23        24        24        48
        24        23        24        48        48
        24        18        23        45        49
        24        18        23        28        45
        24        18        23        28        50
        24        18        23        24        49
        24        18        23        24        48
        24        18        23        48        50
        24        28        29        43        45
        24        17        28        29        43
        24        17        28        29        44
        24        18        28        29        45
        24        18        28        29        50
        24        28        29        44        50
        24        11        17        40        43
        24        11        17        31        40
        24        11        17        31        38
        24        11        17        29        43
        24        11        17        29        44
        24        11        17        38        44
        24        14        21        31        40
        24        10        14        21        31
        24        10        21        31        39
        24        11        21        31        40
        24        11        21        31        38
        24        21        31        38        39
        24         3        10        14        34
        24         3        10        15        34
        24         3         7        10        15
        24         3        10        14        21
        24         3        10        21        39
        24         3         7        10        39
        24         7        15        15        34
        48         2         7        15        15
        48         2         7        15        33
        24         3         7        15        34
        24         3         7         7        15
        24         7         7        15        33
        48         2         9        15        15
        24         2         8         9        15
        48         2         2         8        15
        24         2         2        15        33
        24         8         9         9        15
        24         8         8         9        15
        24         2         8         8        15
        24         8         9        15        15
        24         2         8        15        15
        24        14        34        35        52
        24        14        21        34        52
        24         3        21        34        52
        24        13        14        20        35
        24        13        14        20        40
        24        11        13        14        40
        24        13        14        35        52
        24        13        14        21        52
        24        11        13        14        21
        24        20        40        41        56
        24        40        41        43        56
        24        29        40        43        56
        24        13        20        40        56
        24        11        13        40        56
        24        11        29        40        56
        24        41        42        43        47
        24        42        43        45        47
        24        18        42        43        45
        24        41        42        43        56
        24        29        42        43        56
        24        18        29        42        43
        24        45        46        47        57
        24        45        46        49        57
        24        24        45        49        57
        24        42        45        47        57
        24        18        42        45        57
        24        18        24        45        57
        24        46        46        49        57
        24        46        49        49        57
        24        24        49        49        57
        24        46        49        57        57
        24        24        49        57        57
        24        24        24        49        57
        24        42        46        47        49
        24        42        45        47        49
        24        18        42        45        49
        24        42        46        49        57
        24        24        42        49        57
        24        18        24        42        49
        24        41        45        47        56
        24        41        43        45        56
        24        29        43        45        56
        24        42        45        47        56
        24        18        42        45        56
        24        18        29        45        56
        24        13        20        41        43
        24        13        20        40        43
        24        11        13        40        43
        24        13        41        43        56
        24        13        29        43        56
        24        11        13        29        43
        24        20        35        40        52
        24        14        35        40        52
        24        14        21        40        52
        24        13        20        40        52
        24        11        13        40        52
        24        11        21        40        52
        24        14        14        21        35
        24        14        14        21        34
        24         3        14        21        34
        24        14        21        35        52
        24        14        21        21        52
        24         3        14        21        21
        24        10        14        34        39
        24        10        15        34        39
        24         7        15        34        39
        24        14        21        34        39
        24         3        21        34        39
        24         3         7        34        39
        48        10        10        15        32
        24         9        10        15        32
        48         9        10        15        15
        24        10        10        15        39
        24         7        10        15        39
        24         7        10        15        15
        24         9        10        32        32
        24         9         9        10        32
        24         9         9        10        15
        24         9        10        10        32
        24         9        10        10        15
        24        20        35        36        53
        24        13        20        35        36
        24        13        35        36        52
        24        19        20        25        53
        24        19        20        25        41
        24        20        25        41        56
        24        20        25        36        53
        24        13        20        25        36
        24        13        20        25        56
        24        19        41        42        57
        24        41        42        47        57
        24        41        42        42        47
        24        19        25        41        42
        24        25        41        42        56
        24        41        42        42        56
        72        46        47        47        57
        36        46        46        47        47
        24        42        47        47        57
        12        42        42        47        47
        48        46        46        46        47
        48        46        46        47        57
        72        46        47        57        57
        24        42        46        46        57
        48        42        46        47        57
        24        42        42        46        47
        24        42        46        46        47
        24        42        42        46        57
        24        19        25        47        57
        24        19        25        41        47
        24        25        41        47        56
        24        25        42        47        57
        24        25        42        42        47
        24        25        42        47        56
        24        19        36        41        53
        24        20        36        41        53
        24        13        20        36        41
        24        19        25        36        41
        24        25        36        41        56
        24        13        36        41        56
        24        13        20        20        53
        24        13        20        20        35
        24        13        20        35        52
        24        13        20        36        53
        24        13        13        20        36
        24        13        13        20        52
        24        11        20        35        40
        24        11        14        35        40
        24        11        14        21        35
        24        11        13        20        35
        24        11        13        35        52
        24        11        21        35        52
        24        14        31        38        40
        24        10        14        31        38
        24        10        14        38        39
        24        11        14        38        40
        24        11        14        21        38
        24        14        21        38        39
        48        10        16        31        31
        24        10        16        31        32
        48        10        10        31        32
        24        10        31        31        38
        24        10        31        38        39
        24        10        10        31        39
        24        16        16        31        32
        24        16        31        32        32
        24        10        31        32        32
        24        16        31        31        32
        24        10        31        31        32
        24        19        53        54        58
        24        19        25        53        58
        24        25        36        53        58
        24        18        19        24        54
        24        18        19        24        57
        24        18        19        42        57
        24        18        19        54        58
        24        18        19        25        58
        24        18        19        25        42
        24        45        46        49        49
        24        45        46        46        49
        24        45        46        46        47
        24        45        45        46        49
        24        45        45        46        47
        24        45        46        47        47
        24        18        24        46        49
        24        18        24        46        57
        24        18        42        46        57
        24        18        45        46        49
        24        18        45        46        47
        24        18        42        46        47
        24        24        54        57        58
        24        19        54        57        58
        24        19        25        57        58
        24        18        24        57        58
        24        18        42        57        58
        24        25        42        57        58
        24        19        19        25        54
        24        19        19        25        53
        24        19        25        36        53
        24        19        25        54        58
        24        19        25        25        58
        24        19        25        25        36
        24        19        41        53        56
        24        20        41        53        56
        24        13        20        53        56
        24        19        25        53        56
        24        25        36        53        56
        24        13        36        53        56
        24        20        29        41        43
        24        20        29        40        43
        24        11        20        29        40
        24        20        29        41        56
        24        13        20        29        56
        24        11        13        20        29
        24        17        40        43        44
        24        17        31        40        44
        24        31        38        40        44
        24        29        40        43        44
        24        11        29        40        44
        24        11        38        40        44
        48        17        17        30        31
        24        16        17        30        31
        48        16        17        31        31
        24        17        17        31        44
        24        17        31        38        44
        24        17        31        31        38
        24        16        17        30        30
        24        16        16        17        30
        24        16        16        17        31
        24        16        17        17        30
        24        16        17        17        31
        24        24        48        50        54
        24        18        24        50        54
        24        18        50        54        58
        24        23        23        28        49
        24        23        28        49        49
        24        28        45        49        49
        24        23        28        28        49
        24        28        28        45        49
        24        28        45        45        49
        24        23        48        49        50
        24        24        48        49        50
        24        18        24        49        50
        24        23        28        49        50
        24        28        45        49        50
        24        18        45        49        50
        24        18        24        24        48
        24        18        24        24        54
        24        18        24        54        58
        24        18        24        48        50
        24        18        18        24        50
        24        18        18        24        58
        24        24        42        54        57
        24        19        42        54        57
        24        19        25        42        54
        24        18        24        42        54
        24        18        42        54        58
        24        25        42        54        58
        24        19        42        47        57
        24        19        41        42        47
        24        19        41        42        56
        24        19        42        42        57
        24        19        25        42        42
        24        19        25        42        56
        24        18        41        45        47
        24        18        41        43        45
        24        18        29        41        43
        24        18        41        42        47
        24        18        41        42        56
        24        18        29        41        56
        24        28        43        45        50
        24        17        28        43        50
        24        17        43        44        50
        24        18        43        45        50
        24        18        29        43        50
        24        29        43        44        50
        48        17        22        28        28
        24        17        22        28        30
        48        17        17        28        30
        24        17        28        28        50
        24        17        28        44        50
        24        17        17        28        44
        24        22        22        28        30
        24        22        28        30        30
        24        17        28        30        30
        24        22        28        28        30
        24        17        28        28        30
        24        22        23        27        27
        24        22        23        23        27
        24        22        23        23        28
        24        22        22        23        27
        24        22        22        23        28
        48        22        23        28        28
        48        23        23        27        28
        24        23        23        28        48
        24        23        28        48        50
        24        22        23        27        28
        24        23        28        28        50
        24        23        45        48        49
        24        24        45        48        49
        24        18        24        45        48
        24        23        28        45        48
        24        28        45        48        50
        24        18        45        48        50
        24        24        46        47        49
        24        24        46        47        57
        24        24        42        47        57
        24        24        45        47        49
        24        18        24        45        47
        24        18        24        42        47
        36        46        46        57        57
        24        42        47        57        57
        12        42        42        57        57
        24        22        27        27        27
        24        22        22        27        27
        24        22        22        22        27
        24        23        27        27        28
        24        23        27        28        28
        24        22        27        27        28
        24        22        22        27        28
        24        22        27        28        28
        24        23        23        45        49
        24        23        45        49        49
        24        23        45        45        49
        24        23        23        28        45
        24        23        28        28        45
        24        23        28        45        45
        24        46        47        49        49
        24        46        46        47        49
        24        46        47        47        49
        24        45        47        49        49
        24        45        45        47        49
        24        45        47        47        49
        48        46        46        46        57
        24        24        46        46        49
        24        24        46        49        49
        24        24        24        46        49
        24        24        46        46        57
        24        24        46        57        57
        24        24        24        46        57
        24        23        48        49        49
        24        23        23        48        49
        24        23        48        48        49
        24        24        48        49        49
        24        24        24        48        49
        24        24        48        48        49
        72        23        23        23        27
        60        23        23        27        27
        24        23        23        23        48
        12        23        23        48        48
        48        23        27        27        27
        24        24        48        54        58
        24        18        24        48        58
        24        18        48        50        58
        24        19        24        25        54
        24        19        24        25        57
        24        24        25        42        57
        24        24        25        54        58
        24        18        24        25        58
        24        18        24        25        42
        24        19        41        56        57
        24        41        47        56        57
        24        42        47        56        57
        24        19        25        56        57
        24        25        42        56        57
        24        42        42        56        57
        24        29        41        43        47
        24        29        43        45        47
        24        18        29        45        47
        24        29        41        47        56
        24        29        42        47        56
        24        18        29        42        47
        24        17        43        44        45
        24        17        28        44        45
        24        28        44        45        50
        24        29        43        44        45
        24        18        29        44        45
        24        18        44        45        50
        24        17        22        30        30
        24        17        22        22        30
        24        17        22        22        28
        24        17        17        22        30
        24        17        17        22        28
        24        19        36        53        54
        24        19        25        36        54
        24        25        36        54        58
        24        13        19        20        53
        24        13        19        20        41
        24        13        19        41        56
        24        13        19        36        53