       N       E                     dE             d eps       ncg     rms          rms(c)
DAV:   1    -0.516413956955E+01   -0.51641E+01   -0.41753E-06   597   0.295E-02    0.278E-02
DAV:   2    -0.516414547982E+01   -0.59103E-05   -0.48964E-06   574   0.290E-02
   1 F= -.51641455E+01 E0= -.51641455E+01  d E =0.000000E+00
