       N       E                     dE             d eps       ncg     rms          rms(c)
DAV:   1     0.285248206477E+02    0.28525E+02   -0.41436E+03  1288   0.708E+02
DAV:   2    -0.492894229017E+01   -0.33454E+02   -0.32003E+02  1110   0.176E+02
DAV:   3    -0.541241683560E+01   -0.48347E+00   -0.47816E+00  1377   0.237E+01
DAV:   4    -0.541840552552E+01   -0.59887E-02   -0.59862E-02  1329   0.227E+00
DAV:   5    -0.541857258620E+01   -0.16706E-03   -0.16705E-03  1628   0.280E-01    0.723E+00
DAV:   6    -0.517635323680E+01    0.24222E+00   -0.11941E+00  1181   0.134E+01    0.401E+00
DAV:   7    -0.516884116776E+01    0.75121E-02   -0.65530E-03  1701   0.759E-01    0.216E+00
DAV:   8    -0.516593968224E+01    0.29015E-02   -0.13389E-03  1158   0.424E-01    0.440E-02
DAV:   9    -0.516594666236E+01   -0.69801E-05   -0.10546E-05   894   0.323E-02
   1 F= -.51659467E+01 E0= -.51642779E+01  d E =-.500625E-02
