 vasp.5.2.12 11Nov11 complex                                                    
  
 executed on             LinuxIFC date 2012.07.18  20:08:28
 serial version


--------------------------------------------------------------------------------------------------------


 INCAR:
 POTCAR:    PAW_PBE Pd 05Jan2001                  
 POTCAR:    PAW_PBE Pd 05Jan2001                  
   VRHFIN =Pd : s1 d9                                                           
   LEXCH  = PE                                                                  
   EATOM  =   809.7532 eV,   59.5152 Ry                                         
                                                                                
   TITEL  = PAW_PBE Pd 05Jan2001                                                
   LULTRA =        F    use ultrasoft PP ?                                      
   IUNSCR =        1    unscreen: 0-lin 1-nonlin 2-no                           
   RPACOR =    2.000    partial core radius                                     
   POMASS =  106.420; ZVAL   =   10.000    mass and valenz                      
   RCORE  =    2.400    outmost cutoff radius                                   
   RWIGS  =    2.710; RWIGS  =    1.434    wigner-seitz radius (au A)           
   ENMAX  =  250.925; ENMIN  =  188.194 eV                                      
   RCLOC  =    1.862    cutoff for local pot                                    
   LCOR   =        T    correct aug charges                                     
   LPAW   =        T    paw PP                                                  
   EAUG   =  416.230                                                            
   DEXC   =    0.000                                                            
   RMAX   =    2.911    core radius for proj-oper                               
   RAUG   =    1.300    factor for augmentation sphere                          
   RDEP   =    2.405    radius for radial grids                                 
   QCUT   =   -4.294; QGAM   =    8.589    optimization parameters              
                                                                                
   Description                                                                  
     l     E      TYP  RCUT    TYP  RCUT                                        
     2    -6.69     23  2.400                                                   
     2    -8.05     23  2.400                                                   
     0    -4.35     23  2.400                                                   
     0     4.34     23  2.400                                                   
     1    -2.72     23  2.400                                                   
     1    15.84     23  2.400                                                   
  local pseudopotential read in
  partial core-charges read in
  atomic valenz-charges read in
  non local Contribution for L=           2  read in
    real space projection operators read in
  non local Contribution for L=           2  read in
    real space projection operators read in
  non local Contribution for L=           0  read in
    real space projection operators read in
  non local Contribution for L=           0  read in
    real space projection operators read in
  non local Contribution for L=           1  read in
    real space projection operators read in
  non local Contribution for L=           1  read in
    real space projection operators read in
    PAW grid and wavefunctions read in
 
   number of l-projection  operators is LMAX  =           6
   number of lm-projection operators is LMMAX =          18
 
  PAW_PBE Pd 05Jan2001                  :
 energy of atom  1       EATOM= -809.7532
 kinetic energy error for atom=    0.0504 (will be added to EATOM!!)
 
 
 POSCAR: Pd                                      
  positions in cartesian coordinates
  No initial velocities read in
 exchange correlation table for  LEXCH =        8
   RHO(1)=    0.500       N(1)  =     2000
   RHO(2)=  100.500       N(2)  =     4000
 


--------------------------------------------------------------------------------------------------------


 ion  position               nearest neighbor table
   1  0.000  0.000  0.000-
 
  LATTYP: Found a face centered cubic cell.
 ALAT       =     3.9000000000
  
  Lattice vectors:
  
 A1 = (   0.0000000000,   1.9500000000,   1.9500000000)
 A2 = (   1.9500000000,   0.0000000000,   1.9500000000)
 A3 = (   1.9500000000,   1.9500000000,   0.0000000000)
 Subroutine PRICEL returns:
 Original cell was already a primitive cell.
 

Analysis of symmetry for initial positions (statically):

 Routine SETGRP: Setting up the symmetry group for a 
 face centered cubic supercell.


 Subroutine GETGRP returns: Found 48 space group operations
 (whereof 48 operations were pure point group operations)
 out of a pool of 48 trial point group operations.


The static configuration has the point symmetry O_h .

Analysis of symmetry for dynamics (positions and initial velocities):

 Subroutine DYNSYM returns: Found 48 space group operations
 (whereof 48 operations were pure point group operations)
 out of a pool of 48 trial space group operations
 (whereof 48 operations were pure point group operations)
 and found also     1 'primitive' translations


The dynamic configuration has the point symmetry O_h .
 
 
 KPOINTS: KPOINTS created by Atomic Simulation Env

Automatic generation of k-mesh.
 
 Subroutine IBZKPT returns following result:
 ===========================================
 
 Found     60 irreducible k-points:
 
 Following reciprocal coordinates:
            Coordinates               Weight
  0.062500  0.062500  0.062500     96.000000
  0.187500  0.062500  0.062500    288.000000
  0.312500  0.062500  0.062500    288.000000
  0.437500  0.062500  0.062500    288.000000
 -0.437500  0.062500  0.062500    288.000000
 -0.312500  0.062500  0.062500    288.000000
 -0.187500  0.062500  0.062500    288.000000
 -0.062500  0.062500  0.062500    288.000000
  0.187500  0.187500  0.062500    288.000000
  0.312500  0.187500  0.062500    576.000000
  0.437500  0.187500  0.062500    576.000000
 -0.437500  0.187500  0.062500    576.000000
 -0.312500  0.187500  0.062500    576.000000
 -0.187500  0.187500  0.062500    576.000000
 -0.062500  0.187500  0.062500    576.000000
  0.312500  0.312500  0.062500    288.000000
  0.437500  0.312500  0.062500    576.000000
 -0.437500  0.312500  0.062500    576.000000
 -0.312500  0.312500  0.062500    576.000000
 -0.187500  0.312500  0.062500    576.000000
 -0.062500  0.312500  0.062500    576.000000
  0.437500  0.437500  0.062500    288.000000
 -0.437500  0.437500  0.062500    576.000000
 -0.312500  0.437500  0.062500    576.000000
 -0.187500  0.437500  0.062500    576.000000
 -0.062500  0.437500  0.062500    576.000000
 -0.437500 -0.437500  0.062500    288.000000
 -0.312500 -0.437500  0.062500    576.000000
 -0.187500 -0.437500  0.062500    576.000000
 -0.312500 -0.312500  0.062500    288.000000
 -0.187500 -0.312500  0.062500    576.000000
 -0.187500 -0.187500  0.062500    288.000000
  0.187500  0.187500  0.187500     96.000000
  0.312500  0.187500  0.187500    288.000000
  0.437500  0.187500  0.187500    288.000000
 -0.437500  0.187500  0.187500    288.000000
 -0.312500  0.187500  0.187500    288.000000
 -0.187500  0.187500  0.187500    288.000000
  0.312500  0.312500  0.187500    288.000000
  0.437500  0.312500  0.187500    576.000000
 -0.437500  0.312500  0.187500    576.000000
 -0.312500  0.312500  0.187500    576.000000
 -0.187500  0.312500  0.187500    576.000000
  0.437500  0.437500  0.187500    288.000000
 -0.437500  0.437500  0.187500    576.000000
 -0.312500  0.437500  0.187500    576.000000
 -0.187500  0.437500  0.187500    576.000000
 -0.437500 -0.437500  0.187500    288.000000
 -0.312500 -0.437500  0.187500    576.000000
 -0.312500 -0.312500  0.187500    288.000000
  0.312500  0.312500  0.312500     96.000000
  0.437500  0.312500  0.312500    288.000000
 -0.437500  0.312500  0.312500    288.000000
 -0.312500  0.312500  0.312500    288.000000
  0.437500  0.437500  0.312500    288.000000
 -0.437500  0.437500  0.312500    576.000000
 -0.312500  0.437500  0.312500    576.000000
 -0.437500 -0.437500  0.312500    288.000000
  0.437500  0.437500  0.437500     96.000000
 -0.437500  0.437500  0.437500    288.000000
 
 Following cartesian coordinates:
            Coordinates               Weight
  0.016026  0.016026  0.016026     96.000000
 -0.016026  0.048077  0.048077    288.000000
 -0.048077  0.080128  0.080128    288.000000
 -0.080128  0.112179  0.112179    288.000000
  0.144231 -0.112179 -0.112179    288.000000
  0.112179 -0.080128 -0.080128    288.000000
  0.080128 -0.048077 -0.048077    288.000000
  0.048077 -0.016026 -0.016026    288.000000
  0.016026  0.016026  0.080128    288.000000
 -0.016026  0.048077  0.112179    576.000000
 -0.048077  0.080128  0.144231    576.000000
  0.176282 -0.144231 -0.080128    576.000000
  0.144231 -0.112179 -0.048077    576.000000
  0.112179 -0.080128 -0.016026    576.000000
  0.080128 -0.048077  0.016026    576.000000
  0.016026  0.016026  0.144231    288.000000
 -0.016026  0.048077  0.176282    576.000000
  0.208333 -0.176282 -0.048077    576.000000
  0.176282 -0.144231 -0.016026    576.000000
  0.144231 -0.112179  0.016026    576.000000
  0.112179 -0.080128  0.048077    576.000000
  0.016026  0.016026  0.208333    288.000000
  0.240385 -0.208333 -0.016026    576.000000
  0.208333 -0.176282  0.016026    576.000000
  0.176282 -0.144231  0.048077    576.000000
  0.144231 -0.112179  0.080128    576.000000
  0.016026  0.016026 -0.240385    288.000000
 -0.016026  0.048077 -0.208333    576.000000
 -0.048077  0.080128 -0.176282    576.000000
  0.016026  0.016026 -0.176282    288.000000
 -0.016026  0.048077 -0.144231    576.000000
  0.016026  0.016026 -0.112179    288.000000
  0.048077  0.048077  0.048077     96.000000
  0.016026  0.080128  0.080128    288.000000
 -0.016026  0.112179  0.112179    288.000000
  0.208333 -0.112179 -0.112179    288.000000
  0.176282 -0.080128 -0.080128    288.000000
  0.144231 -0.048077 -0.048077    288.000000
  0.048077  0.048077  0.112179    288.000000
  0.016026  0.080128  0.144231    576.000000
  0.240385 -0.144231 -0.080128    576.000000
  0.208333 -0.112179 -0.048077    576.000000
  0.176282 -0.080128 -0.016026    576.000000
  0.048077  0.048077  0.176282    288.000000
  0.272436 -0.176282 -0.048077    576.000000
  0.240385 -0.144231 -0.016026    576.000000
  0.208333 -0.112179  0.016026    576.000000
  0.048077  0.048077 -0.272436    288.000000
  0.016026  0.080128 -0.240385    576.000000
  0.048077  0.048077 -0.208333    288.000000
  0.080128  0.080128  0.080128     96.000000
  0.048077  0.112179  0.112179    288.000000
  0.272436 -0.112179 -0.112179    288.000000
  0.240385 -0.080128 -0.080128    288.000000
  0.080128  0.080128  0.144231    288.000000
  0.304487 -0.144231 -0.080128    576.000000
  0.272436 -0.112179 -0.048077    576.000000
  0.080128  0.080128 -0.304487    288.000000
  0.112179  0.112179  0.112179     96.000000
  0.336538 -0.112179 -0.112179    288.000000
 
 TETIRR: Found    989 inequivalent tetrahedra from    24576


--------------------------------------------------------------------------------------------------------




 Dimension of arrays:
   k-points           NKPTS =     60   k-points in BZ     NKDIM =     60   number of bands    NBANDS=      9
   number of dos      NEDOS =    301   number of ions     NIONS =      1
   non local maximal  LDIM  =      6   non local SUM 2l+1 LMDIM =     18
   total plane-waves  NPLWV =   1728
   max r-space proj   IRMAX =      1   max aug-charges    IRDMAX=   5851
   dimension x,y,z NGX =    12 NGY =   12 NGZ =   12
   dimension x,y,z NGXF=    24 NGYF=   24 NGZF=   24
   support grid    NGXF=    24 NGYF=   24 NGZF=   24
   ions per type =               1
 NGX,Y,Z   is equivalent  to a cutoff of   7.23,  7.23,  7.23 a.u.
 NGXF,Y,Z  is equivalent  to a cutoff of  14.47, 14.47, 14.47 a.u.


 I would recommend the setting:
   dimension x,y,z NGX =    12 NGY =   12 NGZ =   12
 SYSTEM =  unknown system                          
 POSCAR =  Pd                                      

 Startparameter for this run:
   NWRITE =      2    write-flag & timer
   PREC   = normal    normal or accurate (medium, high low for compatibility)
   ISTART =      1    job   : 0-new  1-cont  2-samecut
   ICHARG =      0    charge: 1-file 2-atom 10-const
   ISPIN  =      1    spin polarized calculation?
   LNONCOLLINEAR =      F non collinear calculations
   LSORBIT =      F    spin-orbit coupling
   INIWAV =      1    electr: 0-lowe 1-rand  2-diag
   LASPH  =      F    aspherical Exc in radial PAW
   METAGGA=      F    non-selfconsistent MetaGGA calc.

 Electronic Relaxation 1
   ENCUT  =  300.0 eV  22.05 Ry    4.70 a.u.   3.89  3.89  3.89*2*pi/ulx,y,z
   ENINI  =  300.0     initial cutoff
   ENAUG  =  416.2 eV  augmentation charge cutoff
   NELM   =     60;   NELMIN=  2; NELMDL=  0     # of ELM steps 
   EDIFF  = 0.1E-03   stopping-criterion for ELM
   LREAL  =      F    real-space projection
   NLSPLINE    = F    spline interpolate recip. space projectors
   LCOMPAT=      F    compatible to vasp.4.4
   GGA_COMPAT  = T    GGA compatible to vasp.4.4-vasp.4.6
   LMAXPAW     = -100 max onsite density
   LMAXMIX     =    2 max onsite mixed and CHGCAR
   VOSKOWN=      0    Vosko Wilk Nusair interpolation
   ROPT   =    0.00000
 Ionic relaxation
   EDIFFG = 0.1E-02   stopping-criterion for IOM
   NSW    =      0    number of steps for IOM
   NBLOCK =      1;   KBLOCK =      1    inner block; outer block 
   IBRION =     -1    ionic relax: 0-MD 1-quasi-New 2-CG
   NFREE  =      0    steps in history (QN), initial steepest desc. (CG)
   ISIF   =      2    stress and relaxation
   IWAVPR =      0    prediction:  0-non 1-charg 2-wave 3-comb
   ISYM   =      2    0-nonsym 1-usesym 2-fastsym
   LCORR  =      T    Harris-Foulkes like correction to forces

   POTIM  = 0.5000    time-step for ionic-motion
   TEIN   =    0.0    initial temperature
   TEBEG  =    0.0;   TEEND  =   0.0 temperature during run
   SMASS  =  -3.00    Nose mass-parameter (am)
   estimated Nose-frequenzy (Omega)   =  0.10E-29 period in steps =****** mass=  -0.174E-27a.u.
   SCALEE = 1.0000    scale energy and forces
   NPACO  =    256;   APACO  = 16.0  distance and # of slots for P.C.
   PSTRESS=    0.0 pullay stress

  Mass of Ions in am
   POMASS = 106.42
  Ionic Valenz
   ZVAL   =  10.00
  Atomic Wigner-Seitz radii
   RWIGS  =   1.50
  virtual crystal weights 
   VCA    =   1.00
   NELECT =      10.0000    total number of electrons
   NUPDOWN=      -1.0000    fix difference up-down

 DOS related values:
   EMIN   =  10.00;   EMAX   =-10.00  energy-range for DOS
   EFERMI =   0.00
   ISMEAR =    -5;   SIGMA  =   0.20  broadening in eV -4-tet -1-fermi 0-gaus

 Electronic relaxation 2 (details)
   IALGO  =     38    algorithm
   LDIAG  =      T    sub-space diagonalisation (order eigenvalues)
   LSUBROT=      T    optimize rotation matrix (better conditioning)
   TURBO    =      0    0=normal 1=particle mesh
   IRESTART =      0    0=no restart 2=restart with 2 vectors
   NREBOOT  =      0    no. of reboots
   NMIN     =      0    reboot dimension
   EREF     =   0.00    reference energy to select bands
   IMIX   =      4    mixing-type and parameters
     AMIX     =   0.40;   BMIX     =  1.00
     AMIX_MAG =   1.60;   BMIX_MAG =  1.00
     AMIN     =   0.10
     WC   =   100.;   INIMIX=   1;  MIXPRE=   1

 Intra band minimization:
   WEIMIN = 0.0000     energy-eigenvalue tresh-hold
   EBREAK =  0.28E-05  absolut break condition
   DEPER  =   0.30     relativ break condition  

   TIME   =   0.40     timestep for ELM

  volume/ion in A,a.u.               =      14.83       100.08
  Fermi-wavevector in a.u.,A,eV,Ry     =   1.435589  2.712870 28.040474  2.060917
  Thomas-Fermi vector in A             =   2.554871
 
 Write flags
   LWAVE  =      T    write WAVECAR
   LCHARG =      T    write CHGCAR
   LVTOT  =      F    write LOCPOT, total local potential
   LVHAR  =      F    write LOCPOT, Hartree potential only
   LELF   =      F    write electronic localiz. function (ELF)
   LORBIT =      0    0 simple, 1 ext, 2 COOP (PROOUT)


 Dipole corrections
   LMONO  =      F    monopole corrections only (constant potential shift)
   LDIPOL =      F    correct potential (dipole corrections)
   IDIPOL =      0    1-x, 2-y, 3-z, 4-all directions 
   EPSILON=  1.0000000 bulk dielectric constant

 Exchange correlation treatment:
   GGA     =    --    GGA type
   LEXCH   =     8    internal setting for exchange type
   VOSKOWN=      0    Vosko Wilk Nusair interpolation
   LHFCALC =     F    Hartree Fock is set to
   LHFONE  =     F    Hartree Fock one center treatment
   AEXX    =    0.0000 exact exchange contribution

 Linear response parameters
   LEPSILON=     F    determine dielectric tensor
   LRPA    =     F    only Hartree local field effects (RPA)
   LNABLA  =     F    use nabla operator in PAW spheres
   LVEL    =     F    velocity operator in full k-point grid
   LINTERFAST=   F  fast interpolation
   KINTER  =     0    interpolate to denser k-point grid
   CSHIFT  =0.1000    complex shift for real part using Kramers Kronig
   OMEGAMAX=  -1.0    maximum frequency
   RTIME   =    0.100 relaxation time in fs

 Orbital magnetization related:
   ORBITALMAG=     F  switch on orbital magnetization
   LCHIMAG   =     F  perturbation theory with respect to B field
   DQ        =  0.001000  dq finite difference perturbation B field



--------------------------------------------------------------------------------------------------------


 Static calculation
 charge density and potential will be updated during run
 non-spin polarized calculation
 Variant of blocked Davidson
 Davidson routine will perform the subspace rotation
 perform sub-space diagonalisation
    after iterative eigenvector-optimisation
 modified Broyden-mixing scheme, WC =      100.0
 initial mixing is a Kerker type mixing with AMIX =  0.4000 and BMIX =      1.0000
 Hartree-type preconditioning will be used
 using additional bands            4
 reciprocal scheme for non local part
 use partial core corrections
 calculate Harris-corrections to forces 
   (improved forces if not selfconsistent)
 use gradient corrections 
 use of overlap-Matrix (Vanderbilt PP)
 Fermi weights with tetrahedron method with Bloechl corrections


--------------------------------------------------------------------------------------------------------


  energy-cutoff  :      300.00
  volume of cell :       14.83
      direct lattice vectors                 reciprocal lattice vectors
     0.000000000  1.950000000  1.950000000    -0.256410256  0.256410256  0.256410256
     1.950000000  0.000000000  1.950000000     0.256410256 -0.256410256  0.256410256
     1.950000000  1.950000000  0.000000000     0.256410256  0.256410256 -0.256410256

  length of vectors
     2.757716447  2.757716447  2.757716447     0.444115592  0.444115592  0.444115592


 
 old parameters found on file WAVECAR:
  energy-cutoff  :      300.00
  volume of cell :       14.83
      direct lattice vectors                 reciprocal lattice vectors
     0.000000000  1.950000000  1.950000000    -0.256410256  0.256410256  0.256410256
     1.950000000  0.000000000  1.950000000     0.256410256 -0.256410256  0.256410256
     1.950000000  1.950000000  0.000000000     0.256410256  0.256410256 -0.256410256

  length of vectors

 
 k-points in units of 2pi/SCALE and weight: KPOINTS created by Atomic Simulation Env
   0.01602564  0.01602564  0.01602564       0.004
  -0.01602564  0.04807692  0.04807692       0.012
  -0.04807692  0.08012821  0.08012821       0.012
  -0.08012821  0.11217949  0.11217949       0.012
   0.14423077 -0.11217949 -0.11217949       0.012
   0.11217949 -0.08012821 -0.08012821       0.012
   0.08012821 -0.04807692 -0.04807692       0.012
   0.04807692 -0.01602564 -0.01602564       0.012
   0.01602564  0.01602564  0.08012821       0.012
  -0.01602564  0.04807692  0.11217949       0.023
  -0.04807692  0.08012821  0.14423077       0.023
   0.17628205 -0.14423077 -0.08012821       0.023
   0.14423077 -0.11217949 -0.04807692       0.023
   0.11217949 -0.08012821 -0.01602564       0.023
   0.08012821 -0.04807692  0.01602564       0.023
   0.01602564  0.01602564  0.14423077       0.012
  -0.01602564  0.04807692  0.17628205       0.023
   0.20833333 -0.17628205 -0.04807692       0.023
   0.17628205 -0.14423077 -0.01602564       0.023
   0.14423077 -0.11217949  0.01602564       0.023
   0.11217949 -0.08012821  0.04807692       0.023
   0.01602564  0.01602564  0.20833333       0.012
   0.24038462 -0.20833333 -0.01602564       0.023
   0.20833333 -0.17628205  0.01602564       0.023
   0.17628205 -0.14423077  0.04807692       0.023
   0.14423077 -0.11217949  0.08012821       0.023
   0.01602564  0.01602564 -0.24038462       0.012
  -0.01602564  0.04807692 -0.20833333       0.023
  -0.04807692  0.08012821 -0.17628205       0.023
   0.01602564  0.01602564 -0.17628205       0.012
  -0.01602564  0.04807692 -0.14423077       0.023
   0.01602564  0.01602564 -0.11217949       0.012
   0.04807692  0.04807692  0.04807692       0.004
   0.01602564  0.08012821  0.08012821       0.012
  -0.01602564  0.11217949  0.11217949       0.012
   0.20833333 -0.11217949 -0.11217949       0.012
   0.17628205 -0.08012821 -0.08012821       0.012
   0.14423077 -0.04807692 -0.04807692       0.012
   0.04807692  0.04807692  0.11217949       0.012
   0.01602564  0.08012821  0.14423077       0.023
   0.24038462 -0.14423077 -0.08012821       0.023
   0.20833333 -0.11217949 -0.04807692       0.023
   0.17628205 -0.08012821 -0.01602564       0.023
   0.04807692  0.04807692  0.17628205       0.012
   0.27243590 -0.17628205 -0.04807692       0.023
   0.24038462 -0.14423077 -0.01602564       0.023
   0.20833333 -0.11217949  0.01602564       0.023
   0.04807692  0.04807692 -0.27243590       0.012
   0.01602564  0.08012821 -0.24038462       0.023
   0.04807692  0.04807692 -0.20833333       0.012
   0.08012821  0.08012821  0.08012821       0.004
   0.04807692  0.11217949  0.11217949       0.012
   0.27243590 -0.11217949 -0.11217949       0.012
   0.24038462 -0.08012821 -0.08012821       0.012
   0.08012821  0.08012821  0.14423077       0.012
   0.30448718 -0.14423077 -0.08012821       0.023
   0.27243590 -0.11217949 -0.04807692       0.023
   0.08012821  0.08012821 -0.30448718       0.012
   0.11217949  0.11217949  0.11217949       0.004
   0.33653846 -0.11217949 -0.11217949       0.012
 
 k-points in reciprocal lattice and weights: KPOINTS created by Atomic Simulation Env
   0.06250000  0.06250000  0.06250000       0.004
   0.18750000  0.06250000  0.06250000       0.012
   0.31250000  0.06250000  0.06250000       0.012
   0.43750000  0.06250000  0.06250000       0.012
  -0.43750000  0.06250000  0.06250000       0.012
  -0.31250000  0.06250000  0.06250000       0.012
  -0.18750000  0.06250000  0.06250000       0.012
  -0.06250000  0.06250000  0.06250000       0.012
   0.18750000  0.18750000  0.06250000       0.012
   0.31250000  0.18750000  0.06250000       0.023
   0.43750000  0.18750000  0.06250000       0.023
  -0.43750000  0.18750000  0.06250000       0.023
  -0.31250000  0.18750000  0.06250000       0.023
  -0.18750000  0.18750000  0.06250000       0.023
  -0.06250000  0.18750000  0.06250000       0.023
   0.31250000  0.31250000  0.06250000       0.012
   0.43750000  0.31250000  0.06250000       0.023
  -0.43750000  0.31250000  0.06250000       0.023
  -0.31250000  0.31250000  0.06250000       0.023
  -0.18750000  0.31250000  0.06250000       0.023
  -0.06250000  0.31250000  0.06250000       0.023
   0.43750000  0.43750000  0.06250000       0.012
  -0.43750000  0.43750000  0.06250000       0.023
  -0.31250000  0.43750000  0.06250000       0.023
  -0.18750000  0.43750000  0.06250000       0.023
  -0.06250000  0.43750000  0.06250000       0.023
  -0.43750000 -0.43750000  0.06250000       0.012
  -0.31250000 -0.43750000  0.06250000       0.023
  -0.18750000 -0.43750000  0.06250000       0.023
  -0.31250000 -0.31250000  0.06250000       0.012
  -0.18750000 -0.31250000  0.06250000       0.023
  -0.18750000 -0.18750000  0.06250000       0.012
   0.18750000  0.18750000  0.18750000       0.004
   0.31250000  0.18750000  0.18750000       0.012
   0.43750000  0.18750000  0.18750000       0.012
  -0.43750000  0.18750000  0.18750000       0.012
  -0.31250000  0.18750000  0.18750000       0.012
  -0.18750000  0.18750000  0.18750000       0.012
   0.31250000  0.31250000  0.18750000       0.012
   0.43750000  0.31250000  0.18750000       0.023
  -0.43750000  0.31250000  0.18750000       0.023
  -0.31250000  0.31250000  0.18750000       0.023
  -0.18750000  0.31250000  0.18750000       0.023
   0.43750000  0.43750000  0.18750000       0.012
  -0.43750000  0.43750000  0.18750000       0.023
  -0.31250000  0.43750000  0.18750000       0.023
  -0.18750000  0.43750000  0.18750000       0.023
  -0.43750000 -0.43750000  0.18750000       0.012
  -0.31250000 -0.43750000  0.18750000       0.023
  -0.31250000 -0.31250000  0.18750000       0.012
   0.31250000  0.31250000  0.31250000       0.004
   0.43750000  0.31250000  0.31250000       0.012
  -0.43750000  0.31250000  0.31250000       0.012
  -0.31250000  0.31250000  0.31250000       0.012
   0.43750000  0.43750000  0.31250000       0.012
  -0.43750000  0.43750000  0.31250000       0.023
  -0.31250000  0.43750000  0.31250000       0.023
  -0.43750000 -0.43750000  0.31250000       0.012
   0.43750000  0.43750000  0.43750000       0.004
  -0.43750000  0.43750000  0.43750000       0.012
 
 position of ions in fractional coordinates (direct lattice) 
   0.00000000  0.00000000  0.00000000
 
 position of ions in cartesian coordinates  (Angst):
   0.00000000  0.00000000  0.00000000
 


--------------------------------------------------------------------------------------------------------


 k-point  1 :  0.06250.06250.0625  plane waves:     169
 k-point  2 :  0.18750.06250.0625  plane waves:     172
 k-point  3 :  0.31250.06250.0625  plane waves:     168
 k-point  4 :  0.43750.06250.0625  plane waves:     169
 k-point  5 :  -.43750.06250.0625  plane waves:     172
 k-point  6 :  -.31250.06250.0625  plane waves:     175
 k-point  7 :  -.18750.06250.0625  plane waves:     170
 k-point  8 :  -.06250.06250.0625  plane waves:     171
 k-point  9 :  0.18750.18750.0625  plane waves:     172
 k-point 10 :  0.31250.18750.0625  plane waves:     171
 k-point 11 :  0.43750.18750.0625  plane waves:     177
 k-point 12 :  -.43750.18750.0625  plane waves:     172
 k-point 13 :  -.31250.18750.0625  plane waves:     175
 k-point 14 :  -.18750.18750.0625  plane waves:     172
 k-point 15 :  -.06250.18750.0625  plane waves:     170
 k-point 16 :  0.31250.31250.0625  plane waves:     175
 k-point 17 :  0.43750.31250.0625  plane waves:     176
 k-point 18 :  -.43750.31250.0625  plane waves:     179
 k-point 19 :  -.31250.31250.0625  plane waves:     178
 k-point 20 :  -.18750.31250.0625  plane waves:     173
 k-point 21 :  -.06250.31250.0625  plane waves:     173
 k-point 22 :  0.43750.43750.0625  plane waves:     178
 k-point 23 :  -.43750.43750.0625  plane waves:     178
 k-point 24 :  -.31250.43750.0625  plane waves:     177
 k-point 25 :  -.18750.43750.0625  plane waves:     176
 k-point 26 :  -.06250.43750.0625  plane waves:     172
 k-point 27 :  -.4375-.43750.0625  plane waves:     184
 k-point 28 :  -.3125-.43750.0625  plane waves:     177
 k-point 29 :  -.1875-.43750.0625  plane waves:     177
 k-point 30 :  -.3125-.31250.0625  plane waves:     175
 k-point 31 :  -.1875-.31250.0625  plane waves:     175
 k-point 32 :  -.1875-.18750.0625  plane waves:     170
 k-point 33 :  0.18750.18750.1875  plane waves:     171
 k-point 34 :  0.31250.18750.1875  plane waves:     172
 k-point 35 :  0.43750.18750.1875  plane waves:     172
 k-point 36 :  -.43750.18750.1875  plane waves:     176
 k-point 37 :  -.31250.18750.1875  plane waves:     178
 k-point 38 :  -.18750.18750.1875  plane waves:     173
 k-point 39 :  0.31250.31250.1875  plane waves:     171
 k-point 40 :  0.43750.31250.1875  plane waves:     175
 k-point 41 :  -.43750.31250.1875  plane waves:     176
 k-point 42 :  -.31250.31250.1875  plane waves:     176
 k-point 43 :  -.18750.31250.1875  plane waves:     178
 k-point 44 :  0.43750.43750.1875  plane waves:     179
 k-point 45 :  -.43750.43750.1875  plane waves:     177
 k-point 46 :  -.31250.43750.1875  plane waves:     179
 k-point 47 :  -.18750.43750.1875  plane waves:     177
 k-point 48 :  -.4375-.43750.1875  plane waves:     178
 k-point 49 :  -.3125-.43750.1875  plane waves:     177
 k-point 50 :  -.3125-.31250.1875  plane waves:     178
 k-point 51 :  0.31250.31250.3125  plane waves:     171
 k-point 52 :  0.43750.31250.3125  plane waves:     171
 k-point 53 :  -.43750.31250.3125  plane waves:     173
 k-point 54 :  -.31250.31250.3125  plane waves:     180
 k-point 55 :  0.43750.43750.3125  plane waves:     172
 k-point 56 :  -.43750.43750.3125  plane waves:     174
 k-point 57 :  -.31250.43750.3125  plane waves:     178
 k-point 58 :  -.4375-.43750.3125  plane waves:     180
 k-point 59 :  0.43750.43750.4375  plane waves:     174
 k-point 60 :  -.43750.43750.4375  plane waves:     172

 maximum number of plane-waves:       184
 maximum index in each direction: 
   IXMAX=    4   IYMAX=    4   IZMAX=    3
   IXMIN=   -4   IYMIN=   -4   IZMIN=   -4

 WARNING: aliasing errors must be expected set NGX to  18 to avoid them
 WARNING: aliasing errors must be expected set NGY to  18 to avoid them
 WARNING: aliasing errors must be expected set NGZ to  16 to avoid them
 aliasing errors are usually negligible using standard VASP settings
 and one can safely disregard these warnings

 total amount of memory used by VASP on root node    34123. kBytes
========================================================================

   base      :      30000. kBytes
   nonl-proj :       1592. kBytes
   grid      :        771. kBytes
   one-center:         15. kBytes
   wavefun   :       1745. kBytes
 
 Broyden mixing: mesh for mixing (old mesh)
   NGX =  7   NGY =  7   NGZ =  7
  (NGX  = 24   NGY  = 24   NGZ  = 24)
  gives a total of    343 points

 charge density for first step will be calculated from the start-wavefunctions


--------------------------------------------------------------------------------------------------------


 Maximum index for augmentation-charges         5425 (set IRDMAX)


--------------------------------------------------------------------------------------------------------


 initial charge from wavefunction
 First call to EWALD:  gamma=   0.721
 Maximum number of real-space cells 3x 3x 3
 Maximum number of reciprocal cells 3x 3x 3

    FEWALD:  cpu time    0.00: real time    0.00


----------------------------------------- Iteration    1(   1)  ---------------------------------------


    POTLOK:  cpu time    0.02: real time    0.02
    SETDIJ:  cpu time    0.01: real time    0.01
     EDDAV:  cpu time    0.23: real time    0.24
 BZINTS: Fermi energy:  4.898707; 10.000000 electrons
         Band energy:  23.303284;  BLOECHL correction: -0.034158
       DOS:  cpu time    0.06: real time    0.06
    CHARGE:  cpu time    0.02: real time    0.02
    MIXING:  cpu time    0.00: real time    0.00
    --------------------------------------------
      LOOP:  cpu time    0.33: real time    0.35

 eigenvalue-minimisations  :   597
 total energy-change (2. order) :-0.5164140E+01  (-0.4175316E-06)
 number of electron       9.9999948 magnetization 
 augmentation part        4.2228046 magnetization 

 Broyden mixing:
  rms(total) = 0.27792E-02    rms(broyden)= 0.26853E-02
  rms(prec ) = 0.55786E-02
  weight for this iteration     100.00

 Free energy of the ion-electron system (eV)
  ---------------------------------------------------
  alpha Z        PSCENC =        91.80708373
  Ewald energy   TEWEN  =      -846.42356471
  -1/2 Hartree   DENC   =      -114.40858954
  -exchange  EXHF       =         0.00000000
  -V(xc)+E(xc)   XCENC  =       -29.38878324
  PAW double counting   =       912.75193760     -852.50833211
  entropy T*S    EENTRO =         0.00000000
  eigenvalues    EBANDS =        23.30328421
  atomic energy  EATOM  =       809.70282448
  ---------------------------------------------------
  free energy    TOTEN  =        -5.16413957 eV

  energy without entropy =       -5.16413957  energy(sigma->0) =       -5.16413957


--------------------------------------------------------------------------------------------------------




----------------------------------------- Iteration    1(   2)  ---------------------------------------


    POTLOK:  cpu time    0.02: real time    0.02
    SETDIJ:  cpu time    0.01: real time    0.01
     EDDAV:  cpu time    0.22: real time    0.22
 BZINTS: Fermi energy:  4.899634; 10.000000 electrons
         Band energy:  23.312394;  BLOECHL correction: -0.034155
       DOS:  cpu time    0.05: real time    0.06
    --------------------------------------------
      LOOP:  cpu time    0.30: real time    0.31

 eigenvalue-minimisations  :   574
 total energy-change (2. order) :-0.5910270E-05  (-0.4896432E-06)
 number of electron       9.9999948 magnetization 
 augmentation part        4.2228046 magnetization 

 Free energy of the ion-electron system (eV)
  ---------------------------------------------------
  alpha Z        PSCENC =        91.80708373
  Ewald energy   TEWEN  =      -846.42356471
  -1/2 Hartree   DENC   =      -114.42017841
  -exchange  EXHF       =         0.00000000
  -V(xc)+E(xc)   XCENC  =       -29.38836431
  PAW double counting   =       912.79595417     -852.55029469
  entropy T*S    EENTRO =         0.00000000
  eigenvalues    EBANDS =        23.31239426
  atomic energy  EATOM  =       809.70282448
  ---------------------------------------------------
  free energy    TOTEN  =        -5.16414548 eV

  energy without entropy =       -5.16414548  energy(sigma->0) =       -5.16414548


--------------------------------------------------------------------------------------------------------




 average (electrostatic) potential at core
  the test charge radii are     1.1199
  (the norm of the test charge is              1.0000)
       1 -46.7240
 
 
 
 E-fermi :   4.8996     XC(G=0): -13.1471     alpha+bet :-11.7980


 k-point   1 :       0.0625    0.0625    0.0625
  band No.  band energies     occupation 
      1      -2.0676      2.00000
      2       2.0562      2.00000
      3       2.1550      2.00000
      4       2.1550      2.00000
      5       3.6860      2.00000
      6       3.6860      2.00000
      7      23.2771      0.00000
      8      26.6962      0.00000
      9      27.1665      0.00000

 k-point   2 :       0.1875    0.0625    0.0625
  band No.  band energies     occupation 
      1      -1.3653      2.00000
      2       1.8218      2.00000
      3       2.3678      2.00000
      4       2.3919      2.00000
      5       3.4656      2.00000
      6       3.8031      2.00000
      7      23.1941      0.00000
      8      24.2432      0.00000
      9      27.1936      0.00000

 k-point   3 :       0.3125    0.0625    0.0625
  band No.  band energies     occupation 
      1      -0.2827      2.00000
      2       2.0500      2.00000
      3       2.4057      2.00000
      4       2.4472      2.00000
      5       3.7064      2.00000
      6       4.3544      2.03208
      7      18.8330      0.00000
      8      23.6468      0.00000
      9      26.9990      0.00000

 k-point   4 :       0.4375    0.0625    0.0625
  band No.  band energies     occupation 
      1      -0.1809      2.00000
      2       2.0955      2.00000
      3       2.2122      2.00000
      4       3.7687      2.00000
      5       4.4809      2.00765
      6       5.5671     -0.05515
      7      14.2440      0.00000
      8      22.6657      0.00000
      9      25.8916      0.00000

 k-point   5 :      -0.4375    0.0625    0.0625
  band No.  band energies     occupation 
      1      -0.2494      2.00000
      2       1.9854      2.00000
      3       2.1484      2.00000
      4       4.2403      2.00000
      5       4.9061      1.69933
      6       6.5868     -0.00097
      7      12.2844      0.00000
      8      22.3637      0.00000
      9      26.0479      0.00000

 k-point   6 :      -0.3125    0.0625    0.0625
  band No.  band energies     occupation 
      1      -0.1528      2.00000
      2       2.1498      2.00000
      3       2.3196      2.00000
      4       3.1000      2.00000
      5       4.6093      2.00041
      6       4.7933      0.71959
      7      15.6729      0.00000
      8      23.0621      0.00000
      9      26.3614      0.00000

 k-point   7 :      -0.1875    0.0625    0.0625
  band No.  band energies     occupation 
      1      -0.5740      2.00000
      2       1.7909      2.00000
      3       2.4390      2.00000
      4       2.4952      2.00000
      5       3.6380      2.00000
      6       4.0046      2.03822
      7      20.4282      0.00000
      8      24.1284      0.00000
      9      27.0390      0.00000

 k-point   8 :      -0.0625    0.0625    0.0625
  band No.  band energies     occupation 
      1      -1.7032      2.00000
      2       1.8808      2.00000
      3       2.3056      2.00000
      4       2.3112      2.00000
      5       3.4953      2.00000
      6       3.7794      2.00000
      7      23.5150      0.00000
      8      25.3939      0.00000
      9      27.2629      0.00000

 k-point   9 :       0.1875    0.1875    0.0625
  band No.  band energies     occupation 
      1      -1.0333      2.00000
      2       1.5442      2.00000
      3       2.5881      2.00000
      4       2.6159      2.00000
      5       3.2423      2.00000
      6       3.9545      2.00000
      7      23.5806      0.00000
      8      24.4731      0.00000
      9      26.0932      0.00000

 k-point  10 :       0.3125    0.1875    0.0625
  band No.  band energies     occupation 
      1      -0.0237      2.00000
      2       1.2475      2.00000
      3       2.3873      2.00000
      4       2.9926      2.00000
      5       3.6179      2.00000
      6       4.4805      1.85147
      7      20.8718      0.00000
      8      22.8971      0.00000
      9      25.4977      0.00000

 k-point  11 :       0.4375    0.1875    0.0625
  band No.  band energies     occupation 
      1       0.3048      2.00000
      2       1.7690      2.00000
      3       2.1355      2.00000
      4       2.8486      2.00000
      5       4.5742      2.04113
      6       6.1302     -0.05357
      7      16.0195      0.00000
      8      22.2533      0.00000
      9      23.6063      0.00000

 k-point  12 :      -0.4375    0.1875    0.0625
  band No.  band energies     occupation 
      1       0.2363      2.00000
      2       1.6014      2.00000
      3       2.6185      2.00000
      4       2.9720      2.00000
      5       4.8391      1.99555
      6       8.5447      0.00000
      7      12.3253      0.00000
      8      21.6581      0.00000
      9      23.0569      0.00000

 k-point  13 :      -0.3125    0.1875    0.0625
  band No.  band energies     occupation 
      1       0.3563      2.00000
      2       1.7481      2.00000
      3       2.4868      2.00000
      4       2.7710      2.00000
      5       4.3677      2.01091
      6       7.1474     -0.00154
      7      14.6022      0.00000
      8      21.1551      0.00000
      9      23.9408      0.00000

 k-point  14 :      -0.1875    0.1875    0.0625
  band No.  band energies     occupation 
      1       0.3340      2.00000
      2       1.4491      2.00000
      3       2.1879      2.00000
      4       2.9469      2.00000
      5       3.4624      2.00000
      6       5.1979      0.31313
      7      19.2807      0.00000
      8      21.4769      0.00000
      9      25.7994      0.00000

 k-point  15 :      -0.0625    0.1875    0.0625
  band No.  band energies     occupation 
      1      -0.7477      2.00000
      2       1.5861      2.00000
      3       2.4901      2.00000
      4       2.6149      2.00000
      5       3.3421      2.00000
      6       4.0634      2.03504
      7      22.1242      0.00000
      8      23.6960      0.00000
      9      26.7626      0.00000

 k-point  16 :       0.3125    0.3125    0.0625
  band No.  band energies     occupation 
      1       0.1795      2.00000
      2       0.7068      2.00000
      3       3.0453      2.00000
      4       3.5751      2.00000
      5       4.1699      2.00162
      6       4.4537      1.63851
      7      21.2232      0.00000
      8      22.3798      0.00000
      9      22.9263      0.00000

 k-point  17 :       0.4375    0.3125    0.0625
  band No.  band energies     occupation 
      1       0.2863      2.00000
      2       0.5545      2.00000
      3       2.9474      2.00000
      4       3.9913      2.00000
      5       4.6494      2.17663
      6       6.3969     -0.04061
      7      18.2780      0.00000
      8      20.2583      0.00000
      9      20.5964      0.00000

 k-point  18 :      -0.4375    0.3125    0.0625
  band No.  band energies     occupation 
      1       0.3888      2.00000
      2       0.9771      2.00000
      3       2.5602      2.00000
      4       3.6267      2.00000
      5       4.9164      1.14789
      6       9.7717      0.00000
      7      13.8408      0.00000
      8      18.4411      0.00000
      9      20.6734      0.00000

 k-point  19 :      -0.3125    0.3125    0.0625
  band No.  band energies     occupation 
      1       0.8326      2.00000
      2       1.3986      2.00000
      3       1.9957      2.00000
      4       3.3698      2.00000
      5       4.4133      2.00217
      6      10.0008      0.00000
      7      14.1924      0.00000
      8      16.9778      0.00000
      9      22.3621      0.00000

 k-point  20 :      -0.1875    0.3125    0.0625
  band No.  band energies     occupation 
      1       0.9180      2.00000
      2       1.5910      2.00000
      3       1.7876      2.00000
      4       3.1354      2.00000
      5       3.8867      2.00000
      6       7.2521      0.00000
      7      16.6079      0.00000
      8      18.8969      0.00000
      9      24.0666      0.00000

 k-point  21 :      -0.0625    0.3125    0.0625
  band No.  band energies     occupation 
      1       0.0411      2.00000
      2       2.1063      2.00000
      3       2.2194      2.00000
      4       2.5687      2.00000
      5       4.0513      2.00000
      6       5.0215      0.58258
      7      17.3714      0.00000
      8      23.0238      0.00000
      9      25.5414      0.00000

 k-point  22 :       0.4375    0.4375    0.0625
  band No.  band energies     occupation 
      1      -0.1847      2.00000
      2       0.0670      2.00000
      3       4.4815      2.00000
      4       4.5586      2.00000
      5       4.9654      0.37584
      6       7.0106      0.00000
      7      17.8193      0.00000
      8      18.5834      0.00000
      9      19.3599      0.00000

 k-point  23 :      -0.4375    0.4375    0.0625
  band No.  band energies     occupation 
      1      -0.1346      2.00000
      2       0.1511      2.00000
      3       3.9750      2.00000
      4       4.5275      2.00000
      5       5.1320     -0.04926
      6       9.5484      0.00000
      7      15.8368      0.00000
      8      16.7542      0.00000
      9      18.5462      0.00000

 k-point  24 :      -0.3125    0.4375    0.0625
  band No.  band energies     occupation 
      1       0.3068      2.00000
      2       0.8367      2.00000
      3       2.7784      2.00000
      4       3.8953      2.00000
      5       4.8672      1.32543
      6      11.7048      0.00000
      7      13.2746      0.00000
      8      16.1832      0.00000
      9      20.2567      0.00000

 k-point  25 :      -0.1875    0.4375    0.0625
  band No.  band energies     occupation 
      1       0.5945      2.00000
      2       1.3711      2.00000
      3       2.4601      2.00000
      4       3.0098      2.00000
      5       4.6708      2.01944
      6       9.7808      0.00000
      7      12.5263      0.00000
      8      19.4554      0.00000
      9      22.5115      0.00000

 k-point  26 :      -0.0625    0.4375    0.0625
  band No.  band energies     occupation 
      1      -0.0435      2.00000
      2       1.8836      2.00000
      3       2.3350      2.00000
      4       3.4710      2.00000
      5       4.7674      2.05328
      6       6.9009     -0.00205
      7      13.0923      0.00000
      8      22.3754      0.00000
      9      24.6458      0.00000

 k-point  27 :      -0.4375   -0.4375    0.0625
  band No.  band energies     occupation 
      1      -0.3551      2.00000
      2      -0.0752      2.00000
      3       4.7752      2.00000
      4       4.8618      2.00000
      5       5.1530      0.00000
      6       8.4315      0.00000
      7      15.9067      0.00000
      8      17.8867      0.00000
      9      18.6445      0.00000

 k-point  28 :      -0.3125   -0.4375    0.0625
  band No.  band energies     occupation 
      1       0.0348      2.00000
      2       0.2877      2.00000
      3       3.5489      2.00000
      4       4.3997      2.00000
      5       4.9356      0.57734
      6       8.0525      0.00000
      7      17.1407      0.00000
      8      18.0469      0.00000
      9      19.1589      0.00000

 k-point  29 :      -0.1875   -0.4375    0.0625
  band No.  band energies     occupation 
      1       0.4235      2.00000
      2       1.3026      2.00000
      3       2.2924      2.00000
      4       3.2322      2.00000
      5       4.8568      1.88249
      6       7.7810      0.00000
      7      14.8058      0.00000
      8      20.9905      0.00000
      9      21.5177      0.00000

 k-point  30 :      -0.3125   -0.3125    0.0625
  band No.  band energies     occupation 
      1       0.0736      2.00000
      2       0.3380      2.00000
      3       3.8069      2.00000
      4       4.1188      2.00000
      5       4.7183      2.09951
      6       5.3847      0.01197
      7      19.7609      0.00000
      8      20.4582      0.00000
      9      20.6660      0.00000

 k-point  31 :      -0.1875   -0.3125    0.0625
  band No.  band energies     occupation 
      1       0.3922      2.00000
      2       0.8938      2.00000
      3       2.4357      2.00000
      4       3.4700      2.00000
      5       4.1997      2.00464
      6       5.1634      0.29444
      7      19.5706      0.00000
      8      21.6264      0.00000
      9      23.2174      0.00000

 k-point  32 :      -0.1875   -0.1875    0.0625
  band No.  band energies     occupation 
      1      -0.2516      2.00000
      2       1.1284      2.00000
      3       2.7183      2.00000
      4       3.0501      2.00000
      5       3.4246      2.00000
      6       4.1891      2.05921
      7      22.5979      0.00000
      8      24.2880      0.00000
      9      24.3778      0.00000

 k-point  33 :       0.1875    0.1875    0.1875
  band No.  band energies     occupation 
      1      -1.0794      2.00000
      2       1.8670      2.00000
      3       2.3926      2.00000
      4       2.3926      2.00000
      5       3.6713      2.00000
      6       3.6713      2.00000
      7      21.8673      0.00000
      8      24.2650      0.00000
      9      27.0197      0.00000

 k-point  34 :       0.3125    0.1875    0.1875
  band No.  band energies     occupation 
      1      -0.2420      2.00000
      2       1.5730      2.00000
      3       2.4228      2.00000
      4       2.7105      2.00000
      5       3.2565      2.00000
      6       4.5118      1.84656
      7      20.6451      0.00000
      8      22.6429      0.00000
      9      27.1400      0.00000

 k-point  35 :       0.4375    0.1875    0.1875
  band No.  band energies     occupation 
      1       0.6674      2.00000
      2       1.6014      2.00000
      3       2.1017      2.00000
      4       2.8877      2.00000
      5       3.5070      2.00000
      6       6.1089     -0.06580
      7      17.8705      0.00000
      8      20.1231      0.00000
      9      25.5537      0.00000

 k-point  36 :      -0.4375    0.1875    0.1875
  band No.  band energies     occupation 
      1       0.4475      2.00000
      2       1.6059      2.00000
      3       2.7062      2.00000
      4       2.7261      2.00000
      5       4.4385      2.00850
      6       8.3543      0.00000
      7      13.4175      0.00000
      8      20.1734      0.00000
      9      24.4906      0.00000

 k-point  37 :      -0.3125    0.1875    0.1875
  band No.  band energies     occupation 
      1       0.2911      2.00000
      2       1.5355      2.00000
      3       2.6169      2.00000
      4       2.8166      2.00000
      5       4.9529      1.13905
      6       8.1812      0.00000
      7      13.2403      0.00000
      8      21.2473      0.00000
      9      23.5255      0.00000

 k-point  38 :      -0.1875    0.1875    0.1875
  band No.  band energies     occupation 
      1       0.3105      2.00000
      2       1.3015      2.00000
      3       2.2789      2.00000
      4       3.0445      2.00000
      5       4.7179      2.02144
      6       5.3179      0.04495
      7      17.6890      0.00000
      8      22.9314      0.00000
      9      23.2832      0.00000

 k-point  39 :       0.3125    0.3125    0.1875
  band No.  band energies     occupation 
      1      -0.0147      2.00000
      2       1.6003      2.00000
      3       2.2896      2.00000
      4       2.7117      2.00000
      5       4.1790      2.00000
      6       4.3793      1.85046
      7      19.0418      0.00000
      8      23.8648      0.00000
      9      25.1554      0.00000

 k-point  40 :       0.4375    0.3125    0.1875
  band No.  band energies     occupation 
      1       0.7002      2.00000
      2       1.2801      2.00000
      3       1.9072      2.00000
      4       3.3526      2.00000
      5       3.9714      2.00300
      6       6.1667     -0.06465
      7      17.9958      0.00000
      8      20.2524      0.00000
      9      23.5252      0.00000

 k-point  41 :      -0.4375    0.3125    0.1875
  band No.  band energies     occupation 
      1       1.0753      2.00000
      2       1.2589      2.00000
      3       1.6840      2.00000
      4       3.4860      2.00000
      5       4.3735      2.00206
      6       8.7485      0.00000
      7      15.4787      0.00000
      8      17.8973      0.00000
      9      21.5313      0.00000

 k-point  42 :      -0.3125    0.3125    0.1875
  band No.  band energies     occupation 
      1       0.7824      2.00000
      2       1.1454      2.00000
      3       2.1240      2.00000
      4       3.3855      2.00000
      5       4.8027      1.95862
      6      10.7384      0.00000
      7      12.6930      0.00000
      8      18.9830      0.00000
      9      19.8651      0.00000

 k-point  43 :      -0.1875    0.3125    0.1875
  band No.  band energies     occupation 
      1       0.6480      2.00000
      2       0.9666      2.00000
      3       2.1311      2.00000
      4       3.7975      2.00000
      5       4.4611      2.09273
      6       7.5607      0.00000
      7      16.8110      0.00000
      8      19.1018      0.00000
      9      20.9281      0.00000

 k-point  44 :       0.4375    0.4375    0.1875
  band No.  band energies     occupation 
      1       0.2898      2.00000
      2       0.8966      2.00000
      3       2.6989      2.00000
      4       3.4637      2.00000
      5       4.9505      1.15276
      6       6.8990     -0.01471
      7      16.4155      0.00000
      8      20.7117      0.00000
      9      21.7167      0.00000

 k-point  45 :      -0.4375    0.4375    0.1875
  band No.  band energies     occupation 
      1       0.4218      2.00000
      2       0.6990      2.00000
      3       2.5795      2.00000
      4       4.0587      2.00000
      5       4.8580      1.41788
      6       9.3308      0.00000
      7      15.8439      0.00000
      8      18.0041      0.00000
      9      18.5246      0.00000

 k-point  46 :      -0.3125    0.4375    0.1875
  band No.  band energies     occupation 
      1       0.6143      2.00000
      2       1.1778      2.00000
      3       1.9750      2.00000
      4       3.6858      2.00000
      5       5.1220     -0.23118
      6      12.5717      0.00000
      7      14.0129      0.00000
      8      16.1278      0.00000
      9      17.2028      0.00000

 k-point  47 :      -0.1875    0.4375    0.1875
  band No.  band energies     occupation 
      1       0.8250      2.00000
      2       1.1874      2.00000
      3       1.8145      2.00000
      4       3.6686      2.00000
      5       4.8251      1.72410
      6      10.6122      0.00000
      7      14.5566      0.00000
      8      17.1733      0.00000
      9      18.8800      0.00000

 k-point  48 :      -0.4375   -0.4375    0.1875
  band No.  band energies     occupation 
      1       0.0016      2.00000
      2       0.4180      2.00000
      3       3.5502      2.00000
      4       4.2510      2.00000
      5       4.9763      0.07182
      6      10.4207      0.00000
      7      14.7624      0.00000
      8      16.0917      0.00000
      9      20.0064      0.00000

 k-point  49 :      -0.3125   -0.4375    0.1875
  band No.  band energies     occupation 
      1       0.2476      2.00000
      2       0.5814      2.00000
      3       2.9278      2.00000
      4       4.0829      2.00000
      5       5.1242     -0.19129
      6      11.0327      0.00000
      7      15.2383      0.00000
      8      16.1225      0.00000
      9      17.8462      0.00000

 k-point  50 :      -0.3125   -0.3125    0.1875
  band No.  band energies     occupation 
      1       0.1296      2.00000
      2       0.5755      2.00000
      3       3.2158      2.00000
      4       3.9068      2.00000
      5       5.0294     -0.00154
      6       8.7539      0.00000
      7      15.3732      0.00000
      8      18.1452      0.00000
      9      20.5935      0.00000

 k-point  51 :       0.3125    0.3125    0.3125
  band No.  band energies     occupation 
      1      -0.2685      2.00000
      2       2.3034      2.00000
      3       2.3034      2.00000
      4       2.8331      2.00000
      5       4.1909      2.00000
      6       4.1909      2.10942
      7      17.1588      0.00000
      8      23.4369      0.00000
      9      26.9963      0.00000

 k-point  52 :       0.4375    0.3125    0.3125
  band No.  band energies     occupation 
      1       0.1641      2.00000
      2       2.0112      2.00000
      3       2.4939      2.00000
      4       2.6502      2.00000
      5       4.0123      2.00000
      6       5.9296     -0.08145
      7      15.8988      0.00000
      8      22.0570      0.00000
      9      25.1201      0.00000

 k-point  53 :      -0.4375    0.3125    0.3125
  band No.  band energies     occupation 
      1       0.9105      2.00000
      2       1.5642      2.00000
      3       1.9916      2.00000
      4       3.1066      2.00000
      5       4.0560      2.00000
      6       8.4882      0.00000
      7      15.3565      0.00000
      8      17.7666      0.00000
      9      24.8724      0.00000

 k-point  54 :      -0.3125    0.3125    0.3125
  band No.  band energies     occupation 
      1       0.4962      2.00000
      2       1.2020      2.00000
      3       2.4342      2.00000
      4       3.5973      2.00000
      5       4.5857      2.11914
      6      11.4151      0.00000
      7      12.9444      0.00000
      8      16.4365      0.00000
      9      22.3617      0.00000

 k-point  55 :       0.4375    0.4375    0.3125
  band No.  band energies     occupation 
      1       0.0529      2.00000
      2       1.8763      2.00000
      3       2.4978      2.00000
      4       2.8451      2.00000
      5       4.8821      1.92016
      6       6.2951     -0.03488
      7      14.3574      0.00000
      8      22.6689      0.00000
      9      24.7381      0.00000

 k-point  56 :      -0.4375    0.4375    0.3125
  band No.  band energies     occupation 
      1       0.5987      2.00000
      2       1.3893      2.00000
      3       2.3066      2.00000
      4       3.0595      2.00000
      5       4.6807      2.02466
      6       8.7868      0.00000
      7      13.4943      0.00000
      8      20.3932      0.00000
      9      21.6455      0.00000

 k-point  57 :      -0.3125    0.4375    0.3125
  band No.  band energies     occupation 
      1       0.7281      2.00000
      2       1.2149      2.00000
      3       1.9937      2.00000
      4       3.5933      2.00000
      5       4.8253      1.72252
      6      11.8516      0.00000
      7      13.2145      0.00000
      8      16.5132      0.00000
      9      19.5956      0.00000

 k-point  58 :      -0.4375   -0.4375    0.3125
  band No.  band energies     occupation 
      1       0.4596      2.00000
      2       1.2812      2.00000
      3       2.4866      2.00000
      4       3.2252      2.00000
      5       4.8194      2.03250
      6      10.2340      0.00000
      7      12.4732      0.00000
      8      18.8092      0.00000
      9      22.7410      0.00000

 k-point  59 :       0.4375    0.4375    0.4375
  band No.  band energies     occupation 
      1      -0.3201      2.00000
      2       2.0925      2.00000
      3       2.0925      2.00000
      4       4.8029      2.00000
      5       4.8029      2.11499
      6       5.3091      0.00607
      7      13.0092      0.00000
      8      22.4507      0.00000
      9      26.8735      0.00000

 k-point  60 :      -0.4375    0.4375    0.4375
  band No.  band energies     occupation 
      1       0.0184      2.00000
      2       1.7963      2.00000
      3       2.3712      2.00000
      4       3.4800      2.00000
      5       4.7693      2.03647
      6       7.7711      0.00000
      7      12.3128      0.00000
      8      21.9981      0.00000
      9      24.5825      0.00000


--------------------------------------------------------------------------------------------------------


 soft charge-density along one line, spin component           1
         0         1         2         3         4         5         6         7         8         9
x     5.7772    0.0000    0.7758    0.0000   -0.2761    0.0000   -0.0036    0.0000    0.0109    0.0000
x     0.0005    0.0000    0.0000    0.0000
y     5.7772    0.0000    0.7758    0.0000   -0.2761    0.0000   -0.0036    0.0000    0.0109    0.0000
y     0.0005    0.0000    0.0000    0.0000
z     5.7772    0.0000    0.7758    0.0000   -0.2761    0.0000   -0.0036    0.0000    0.0109    0.0000
z     0.0005    0.0000    0.0000    0.0000
 total charge-density along one line
x    10.0000    0.0000    3.6021    0.0000    0.4360    0.0000   -0.0118    0.0000    0.0067    0.0000
x     0.0009    0.0000   -0.0001    0.0000    0.0001    0.0000    0.0000    0.0000    0.0000    0.0000
x     0.0000    0.0000    0.0000    0.0000    0.0000    0.0000
y    10.0000    0.0000    3.6021    0.0000    0.4360    0.0000   -0.0118    0.0000    0.0067    0.0000
y     0.0009    0.0000   -0.0001    0.0000    0.0001    0.0000    0.0000    0.0000    0.0000    0.0000
y     0.0000    0.0000    0.0000    0.0000    0.0000    0.0000
z    10.0000    0.0000    3.6021    0.0000    0.4360    0.0000   -0.0118    0.0000    0.0067    0.0000
z     0.0009    0.0000   -0.0001    0.0000    0.0001    0.0000    0.0000    0.0000    0.0000    0.0000
z     0.0000    0.0000    0.0000    0.0000    0.0000    0.0000
 
 pseudopotential strength for first ion, spin component:           1
 -9.318   0.000   0.000   0.000   0.000  -9.610   0.000   0.000
  0.000  -9.318   0.000   0.000   0.000   0.000  -9.610   0.000
  0.000   0.000  -9.285   0.000   0.000   0.000   0.000  -9.577
  0.000   0.000   0.000  -9.318   0.000   0.000   0.000   0.000
  0.000   0.000   0.000   0.000  -9.285   0.000   0.000   0.000
 -9.610   0.000   0.000   0.000   0.000  -9.881   0.000   0.000
  0.000  -9.610   0.000   0.000   0.000   0.000  -9.881   0.000
  0.000   0.000  -9.577   0.000   0.000   0.000   0.000  -9.849
  0.000   0.000   0.000  -9.610   0.000   0.000   0.000   0.000
  0.000   0.000   0.000   0.000  -9.577   0.000   0.000   0.000
  0.000   0.000   0.000   0.000   0.000   0.000   0.000   0.000
  0.000   0.000   0.000   0.000   0.000   0.000   0.000   0.000
  0.000   0.000   0.000   0.000   0.000   0.000   0.000   0.000
  0.000   0.000   0.000   0.000   0.000   0.000   0.000   0.000
  0.000   0.000   0.000   0.000   0.000   0.000   0.000   0.000
  0.000   0.000   0.000   0.000   0.000   0.000   0.000   0.000
  0.000   0.000   0.000   0.000   0.000   0.000   0.000   0.000
  0.000   0.000   0.000   0.000   0.000   0.000   0.000   0.000
 total augmentation occupancy for first ion, spin component:           1
  3.132   0.000   0.000   0.000   0.000  -1.779   0.000   0.000   0.000   0.000   0.000   0.000   0.000   0.000   0.000   0.000
  0.000   3.132   0.000   0.000   0.000   0.000  -1.779   0.000   0.000   0.000   0.000   0.000   0.000   0.000   0.000   0.000
  0.000   0.000   3.780   0.000   0.000   0.000   0.000  -1.971   0.000   0.000   0.000   0.000   0.000   0.000   0.000   0.000
  0.000   0.000   0.000   3.132   0.000   0.000   0.000   0.000  -1.779   0.000   0.000   0.000   0.000   0.000   0.000   0.000
  0.000   0.000   0.000   0.000   3.780   0.000   0.000   0.000   0.000  -1.971   0.000   0.000   0.000   0.000   0.000   0.000
 -1.779   0.000   0.000   0.000   0.000   2.142   0.000   0.000   0.000   0.000   0.000   0.000   0.000   0.000   0.000   0.000
  0.000  -1.779   0.000   0.000   0.000   0.000   2.142   0.000   0.000   0.000   0.000   0.000   0.000   0.000   0.000   0.000
  0.000   0.000  -1.971   0.000   0.000   0.000   0.000   2.012   0.000   0.000   0.000   0.000   0.000   0.000   0.000   0.000
  0.000   0.000   0.000  -1.779   0.000   0.000   0.000   0.000   2.142   0.000   0.000   0.000   0.000   0.000   0.000   0.000
  0.000   0.000   0.000   0.000  -1.971   0.000   0.000   0.000   0.000   2.012   0.000   0.000   0.000   0.000   0.000   0.000
  0.000   0.000   0.000   0.000   0.000   0.000   0.000   0.000   0.000   0.000   2.367  -0.416   0.000   0.000   0.000   0.000
  0.000   0.000   0.000   0.000   0.000   0.000   0.000   0.000   0.000   0.000  -0.416   0.076   0.000   0.000   0.000   0.000
  0.000   0.000   0.000   0.000   0.000   0.000   0.000   0.000   0.000   0.000   0.000   0.000   0.161   0.000   0.000  -0.007
  0.000   0.000   0.000   0.000   0.000   0.000   0.000   0.000   0.000   0.000   0.000   0.000   0.000   0.161   0.000   0.000
  0.000   0.000   0.000   0.000   0.000   0.000   0.000   0.000   0.000   0.000   0.000   0.000   0.000   0.000   0.161   0.000
  0.000   0.000   0.000   0.000   0.000   0.000   0.000   0.000   0.000   0.000   0.000   0.000  -0.007   0.000   0.000   0.000
  0.000   0.000   0.000   0.000   0.000   0.000   0.000   0.000   0.000   0.000   0.000   0.000   0.000  -0.007   0.000   0.000
  0.000   0.000   0.000   0.000   0.000   0.000   0.000   0.000   0.000   0.000   0.000   0.000   0.000   0.000  -0.007   0.000


------------------------ aborting loop because EDIFF is reached ----------------------------------------


    CHARGE:  cpu time    0.02: real time    0.02
    FORLOC:  cpu time    0.00: real time    0.00
    FORNL :  cpu time    0.06: real time    0.06
    STRESS:  cpu time    0.17: real time    0.17
    FORCOR:  cpu time    0.02: real time    0.02
    FORHAR:  cpu time    0.00: real time    0.00
    MIXING:  cpu time    0.00: real time    0.00

  FORCE on cell =-STRESS in cart. coord.  units (eV):
  Direction    XX          YY          ZZ          XY          YZ          ZX
  --------------------------------------------------------------------------------------
  Alpha Z    91.80708    91.80708    91.80708
  Ewald    -282.14120  -282.14120  -282.14120     0.00000     0.00000     0.00000
  Hartree    38.14238    38.14238    38.14238     0.00000     0.00000     0.00000
  E(xc)     -52.54560   -52.54560   -52.54560     0.00000     0.00000     0.00000
  Local      78.39176    78.39176    78.39176     0.00003     0.00004     0.00003
  n-local   -51.44196   -51.69375   -52.31099     0.92512    -0.99373     0.08137
  augment    43.00035    43.00034    43.00035     0.00011     0.00011     0.00011
  Kinetic   135.16158   137.88280   134.54332     1.96296    -1.79524    -0.02879
  Fock        0.00000     0.00000     0.00000     0.00000     0.00000     0.00000
  -------------------------------------------------------------------------------------
  Total       0.70177     0.70177     0.70177     0.00000     0.00000     0.00000
  in kB      75.81834    75.81834    75.81834     0.00000     0.00000     0.00000
  external pressure =       75.82 kB  Pullay stress =        0.00 kB


 VOLUME and BASIS-vectors are now :
 -----------------------------------------------------------------------------
  energy-cutoff  :      300.00
  volume of cell :       14.83
      direct lattice vectors                 reciprocal lattice vectors
     0.000000000  1.950000000  1.950000000    -0.256410256  0.256410256  0.256410256
     1.950000000  0.000000000  1.950000000     0.256410256 -0.256410256  0.256410256
     1.950000000  1.950000000  0.000000000     0.256410256  0.256410256 -0.256410256

  length of vectors
     2.757716447  2.757716447  2.757716447     0.444115592  0.444115592  0.444115592


 FORCES acting on ions
    electron-ion (+dipol)            ewald-force                    non-local-force                 convergence-correction
 -----------------------------------------------------------------------------------------------
   -.162E-13 -.352E-13 -.288E-13   0.185E-15 -.183E-14 0.164E-14   0.000E+00 0.000E+00 -.145E-22   -.641E-14 -.258E-14 -.200E-13
 -----------------------------------------------------------------------------------------------
   -.162E-13 -.352E-13 -.288E-13   0.185E-15 -.183E-14 0.164E-14   0.000E+00 0.000E+00 -.145E-22   -.641E-14 -.258E-14 -.200E-13
 
 
 POSITION                                       TOTAL-FORCE (eV/Angst)
 -----------------------------------------------------------------------------------
      0.00000      0.00000      0.00000         0.000000      0.000000      0.000000
 -----------------------------------------------------------------------------------
    total drift:                                0.000000      0.000000      0.000000


--------------------------------------------------------------------------------------------------------



  FREE ENERGIE OF THE ION-ELECTRON SYSTEM (eV)
  ---------------------------------------------------
  free  energy   TOTEN  =        -5.164145 eV

  energy  without entropy=       -5.164145  energy(sigma->0) =       -5.164145
 


--------------------------------------------------------------------------------------------------------


    POTLOK:  cpu time    0.02: real time    0.02


--------------------------------------------------------------------------------------------------------


 writing wavefunctions
     LOOP+:  cpu time    1.00: real time    1.08
    4ORBIT:  cpu time    0.00: real time    0.00

volume of typ            1:    95.3 %
 


 total charge     
 
# of ion     s       p       d       tot
----------------------------------------
  1        0.470   0.446   8.379   9.296
 
 BZINTS: Fermi energy:  4.899634; 10.000000 electrons
         Band energy:  23.312394;  BLOECHL correction: -0.034155

 total amount of memory used by VASP on root node    34123. kBytes
========================================================================

   base      :      30000. kBytes
   nonl-proj :       1592. kBytes
   grid      :        771. kBytes
   one-center:         15. kBytes
   wavefun   :       1745. kBytes
 
  
  
 General timing and accounting informations for this job:
 ========================================================
  
                  Total CPU time used (sec):        1.600
                            User time (sec):        1.481
                          System time (sec):        0.119
                         Elapsed time (sec):        1.839
  
                   Maximum memory used (kb):           0.
                   Average memory used (kb):           0.
  
                          Minor page faults:         4811
                          Major page faults:            2
                 Voluntary context switches:           37
