PROCAR new format
# of k-points:   60         # of bands:   9         # of ions:   1

 k-point    1 :    0.06250000 0.06250000 0.06250000     weight = 0.00390625

band   1 # energy   -2.06760515 # occ.  2.00000000
 
ion      s      p      d    tot
  1  0.746  0.011  0.000  0.758
 
band   2 # energy    2.05620196 # occ.  2.00000000
 
ion      s      p      d    tot
  1  0.000  0.002  0.964  0.966
 
band   3 # energy    2.15499030 # occ.  2.00000000
 
ion      s      p      d    tot
  1  0.000  0.000  0.968  0.968
 
band   4 # energy    2.15499037 # occ.  2.00000000
 
ion      s      p      d    tot
  1  0.000  0.000  0.968  0.968
 
band   5 # energy    3.68604703 # occ.  2.00000000
 
ion      s      p      d    tot
  1  0.000  0.000  0.977  0.977
 
band   6 # energy    3.68604710 # occ.  2.00000000
 
ion      s      p      d    tot
  1  0.000  0.000  0.977  0.977
 
band   7 # energy   23.27709455 # occ.  0.00000000
 
ion      s      p      d    tot
  1  0.000  0.001  0.027  0.028
 
band   8 # energy   26.69621086 # occ.  0.00000000
 
ion      s      p      d    tot
  1  0.017  0.192  0.028  0.237
 
band   9 # energy   27.16651535 # occ.  0.00000000
 
ion      s      p      d    tot
  1  0.000  0.849  0.002  0.851
 

 k-point    2 :    0.18750000 0.06250000 0.06250000     weight = 0.01171875

band   1 # energy   -1.36530444 # occ.  2.00000000
 
ion      s      p      d    tot
  1  0.684  0.061  0.018  0.763
 
band   2 # energy    1.82176496 # occ.  2.00000000
 
ion      s      p      d    tot
  1  0.003  0.013  0.940  0.955
 
band   3 # energy    2.36782965 # occ.  2.00000000
 
ion      s      p      d    tot
  1  0.000  0.000  0.966  0.966
 
band   4 # energy    2.39193355 # occ.  2.00000000
 
ion      s      p      d    tot
  1  0.002  0.009  0.953  0.964
 
band   5 # energy    3.46564420 # occ.  2.00000000
 
ion      s      p      d    tot
  1  0.000  0.000  0.969  0.969
 
band   6 # energy    3.80313451 # occ.  2.00000000
 
ion      s      p      d    tot
  1  0.002  0.001  0.970  0.974
 
band   7 # energy   23.19408606 # occ.  0.00000000
 
ion      s      p      d    tot
  1  0.022  0.123  0.207  0.353
 
band   8 # energy   24.24321320 # occ.  0.00000000
 
ion      s      p      d    tot
  1  0.036  0.088  0.058  0.182
 
band   9 # energy   27.19355593 # occ.  0.00000000
 
ion      s      p      d    tot
  1  0.000  0.420  0.064  0.485
 

 k-point    3 :    0.31250000 0.06250000 0.06250000     weight = 0.01171875

band   1 # energy   -0.28265662 # occ.  2.00000000
 
ion      s      p      d    tot
  1  0.432  0.076  0.317  0.826
 
band   2 # energy    2.05004417 # occ.  2.00000000
 
ion      s      p      d    tot
  1  0.088  0.111  0.700  0.900
 
band   3 # energy    2.40572198 # occ.  2.00000000
 
ion      s      p      d    tot
  1  0.018  0.035  0.888  0.942
 
band   4 # energy    2.44722051 # occ.  2.00000000
 
ion      s      p      d    tot
  1  0.000  0.000  0.962  0.962
 
band   5 # energy    3.70640274 # occ.  2.00000000
 
ion      s      p      d    tot
  1  0.000  0.002  0.962  0.965
 
band   6 # energy    4.35438381 # occ.  2.03207589
 
ion      s      p      d    tot
  1  0.021  0.020  0.924  0.964
 
band   7 # energy   18.83295539 # occ.  0.00000000
 
ion      s      p      d    tot
  1  0.142  0.268  0.266  0.676
 
band   8 # energy   23.64681292 # occ.  0.00000000
 
ion      s      p      d    tot
  1  0.005  0.049  0.137  0.191
 
band   9 # energy   26.99898202 # occ.  0.00000000
 
ion      s      p      d    tot
  1  0.008  0.489  0.133  0.631
 

 k-point    4 :    0.43750000 0.06250000 0.06250000     weight = 0.01171875

band   1 # energy   -0.18088557 # occ.  2.00000000
 
ion      s      p      d    tot
  1  0.200  0.016  0.685  0.901
 
band   2 # energy    2.09548401 # occ.  2.00000000
 
ion      s      p      d    tot
  1  0.000  0.003  0.953  0.955
 
band   3 # energy    2.21222119 # occ.  2.00000000
 
ion      s      p      d    tot
  1  0.000  0.000  0.958  0.958
 
band   4 # energy    3.76871057 # occ.  2.00000000
 
ion      s      p      d    tot
  1  0.071  0.258  0.527  0.856
 
band   5 # energy    4.48091496 # occ.  2.00764918
 
ion      s      p      d    tot
  1  0.000  0.002  0.971  0.973
 
band   6 # energy    5.56709189 # occ. -0.05515233
 
ion      s      p      d    tot
  1  0.079  0.211  0.597  0.887
 
band   7 # energy   14.24402420 # occ.  0.00000000
 
ion      s      p      d    tot
  1  0.325  0.182  0.321  0.828
 
band   8 # energy   22.66573395 # occ.  0.00000000
 
ion      s      p      d    tot
  1  0.001  0.041  0.064  0.105
 
band   9 # energy   25.89160430 # occ.  0.00000000
 
ion      s      p      d    tot
  1  0.018  0.475  0.081  0.575
 

 k-point    5 :   -0.43750000 0.06250000 0.06250000     weight = 0.01171875

band   1 # energy   -0.24944904 # occ.  2.00000000
 
ion      s      p      d    tot
  1  0.167  0.006  0.738  0.911
 
band   2 # energy    1.98540986 # occ.  2.00000000
 
ion      s      p      d    tot
  1  0.000  0.002  0.951  0.953
 
band   3 # energy    2.14838703 # occ.  2.00000000
 
ion      s      p      d    tot
  1  0.000  0.001  0.956  0.958
 
band   4 # energy    4.24026335 # occ.  2.00000000
 
ion      s      p      d    tot
  1  0.002  0.164  0.744  0.910
 
band   5 # energy    4.90614796 # occ.  1.69933346
 
ion      s      p      d    tot
  1  0.000  0.000  0.981  0.981
 
band   6 # energy    6.58683607 # occ. -0.00096679
 
ion      s      p      d    tot
  1  0.009  0.519  0.252  0.780
 
band   7 # energy   12.28444972 # occ.  0.00000000
 
ion      s      p      d    tot
  1  0.487  0.020  0.389  0.896
 
band   8 # energy   22.36373421 # occ.  0.00000000
 
ion      s      p      d    tot
  1  0.000  0.032  0.037  0.069
 
band   9 # energy   26.04789093 # occ.  0.00000000
 
ion      s      p      d    tot
  1  0.021  0.482  0.052  0.555
 

 k-point    6 :   -0.31250000 0.06250000 0.06250000     weight = 0.01171875

band   1 # energy   -0.15275060 # occ.  2.00000000
 
ion      s      p      d    tot
  1  0.241  0.027  0.618  0.887
 
band   2 # energy    2.14977358 # occ.  2.00000000
 
ion      s      p      d    tot
  1  0.000  0.001  0.955  0.956
 
band   3 # energy    2.31959236 # occ.  2.00000000
 
ion      s      p      d    tot
  1  0.000  0.003  0.957  0.960
 
band   4 # energy    3.09999748 # occ.  2.00000000
 
ion      s      p      d    tot
  1  0.114  0.233  0.504  0.851
 
band   5 # energy    4.60932507 # occ.  2.00041389
 
ion      s      p      d    tot
  1  0.000  0.002  0.974  0.976
 
band   6 # energy    4.79330450 # occ.  0.71958846
 
ion      s      p      d    tot
  1  0.074  0.131  0.708  0.913
 
band   7 # energy   15.67285503 # occ.  0.00000000
 
ion      s      p      d    tot
  1  0.252  0.237  0.296  0.785
 
band   8 # energy   23.06211171 # occ.  0.00000000
 
ion      s      p      d    tot
  1  0.000  0.028  0.067  0.095
 
band   9 # energy   26.36144396 # occ.  0.00000000
 
ion      s      p      d    tot
  1  0.000  0.486  0.151  0.637
 

 k-point    7 :   -0.18750000 0.06250000 0.06250000     weight = 0.01171875

band   1 # energy   -0.57404313 # occ.  2.00000000
 
ion      s      p      d    tot
  1  0.548  0.091  0.152  0.791
 
band   2 # energy    1.79088775 # occ.  2.00000000
 
ion      s      p      d    tot
  1  0.046  0.063  0.814  0.923
 
band   3 # energy    2.43902751 # occ.  2.00000000
 
ion      s      p      d    tot
  1  0.002  0.008  0.948  0.958
 
band   4 # energy    2.49516072 # occ.  2.00000000
 
ion      s      p      d    tot
  1  0.000  0.005  0.959  0.964
 
band   5 # energy    3.63798583 # occ.  2.00000000
 
ion      s      p      d    tot
  1  0.015  0.013  0.932  0.960
 
band   6 # energy    4.00457488 # occ.  2.03821940
 
ion      s      p      d    tot
  1  0.000  0.002  0.970  0.972
 
band   7 # energy   20.42817957 # occ.  0.00000000
 
ion      s      p      d    tot
  1  0.100  0.255  0.250  0.605
 
band   8 # energy   24.12840586 # occ.  0.00000000
 
ion      s      p      d    tot
  1  0.006  0.007  0.114  0.127
 
band   9 # energy   27.03899201 # occ.  0.00000000
 
ion      s      p      d    tot
  1  0.000  0.492  0.179  0.671
 

 k-point    8 :   -0.06250000 0.06250000 0.06250000     weight = 0.01171875

band   1 # energy   -1.70320463 # occ.  2.00000000
 
ion      s      p      d    tot
  1  0.717  0.038  0.005  0.759
 
band   2 # energy    1.88082825 # occ.  2.00000000
 
ion      s      p      d    tot
  1  0.000  0.003  0.958  0.961
 
band   3 # energy    2.30558648 # occ.  2.00000000
 
ion      s      p      d    tot
  1  0.001  0.004  0.962  0.966
 
band   4 # energy    2.31116028 # occ.  2.00000000
 
ion      s      p      d    tot
  1  0.000  0.004  0.963  0.967
 
band   5 # energy    3.49532161 # occ.  2.00000000
 
ion      s      p      d    tot
  1  0.001  0.001  0.969  0.971
 
band   6 # energy    3.77938319 # occ.  2.00000000
 
ion      s      p      d    tot
  1  0.000  0.000  0.977  0.977
 
band   7 # energy   23.51501912 # occ.  0.00000000
 
ion      s      p      d    tot
  1  0.001  0.014  0.104  0.119
 
band   8 # energy   25.39387417 # occ.  0.00000000
 
ion      s      p      d    tot
  1  0.036  0.148  0.056  0.241
 
band   9 # energy   27.26286565 # occ.  0.00000000
 
ion      s      p      d    tot
  1  0.000  0.458  0.074  0.533
 

 k-point    9 :    0.18750000 0.18750000 0.06250000     weight = 0.01171875

band   1 # energy   -1.03330862 # occ.  2.00000000
 
ion      s      p      d    tot
  1  0.649  0.086  0.029  0.764
 
band   2 # energy    1.54419270 # occ.  2.00000000
 
ion      s      p      d    tot
  1  0.001  0.003  0.950  0.954
 
band   3 # energy    2.58813768 # occ.  2.00000000
 
ion      s      p      d    tot
  1  0.000  0.009  0.954  0.963
 
band   4 # energy    2.61589390 # occ.  2.00000000
 
ion      s      p      d    tot
  1  0.000  0.009  0.955  0.965
 
band   5 # energy    3.24234166 # occ.  2.00000000
 
ion      s      p      d    tot
  1  0.016  0.008  0.934  0.958
 
band   6 # energy    3.95447820 # occ.  2.00000000
 
ion      s      p      d    tot
  1  0.000  0.000  0.977  0.977
 
band   7 # energy   23.58064623 # occ.  0.00000000
 
ion      s      p      d    tot
  1  0.021  0.132  0.224  0.377
 
band   8 # energy   24.47312097 # occ.  0.00000000
 
ion      s      p      d    tot
  1  0.028  0.043  0.117  0.189
 
band   9 # energy   26.09319831 # occ.  0.00000000
 
ion      s      p      d    tot
  1  0.000  0.365  0.187  0.552
 

 k-point   10 :    0.31250000 0.18750000 0.06250000     weight = 0.02343750

band   1 # energy   -0.02366317 # occ.  2.00000000
 
ion      s      p      d    tot
  1  0.475  0.132  0.186  0.792
 
band   2 # energy    1.24748346 # occ.  2.00000000
 
ion      s      p      d    tot
  1  0.012  0.024  0.904  0.939
 
band   3 # energy    2.38728719 # occ.  2.00000000
 
ion      s      p      d    tot
  1  0.009  0.008  0.933  0.949
 
band   4 # energy    2.99258349 # occ.  2.00000000
 
ion      s      p      d    tot
  1  0.002  0.012  0.947  0.962
 
band   5 # energy    3.61791280 # occ.  2.00000000
 
ion      s      p      d    tot
  1  0.040  0.038  0.870  0.948
 
band   6 # energy    4.48047542 # occ.  1.85146993
 
ion      s      p      d    tot
  1  0.028  0.022  0.916  0.966
 
band   7 # energy   20.87176672 # occ.  0.00000000
 
ion      s      p      d    tot
  1  0.087  0.278  0.235  0.600
 
band   8 # energy   22.89708336 # occ.  0.00000000
 
ion      s      p      d    tot
  1  0.014  0.256  0.279  0.549
 
band   9 # energy   25.49766309 # occ.  0.00000000
 
ion      s      p      d    tot
  1  0.012  0.226  0.191  0.429
 

 k-point   11 :    0.43750000 0.18750000 0.06250000     weight = 0.02343750

band   1 # energy    0.30480017 # occ.  2.00000000
 
ion      s      p      d    tot
  1  0.170  0.049  0.675  0.894
 
band   2 # energy    1.76895908 # occ.  2.00000000
 
ion      s      p      d    tot
  1  0.010  0.063  0.833  0.907
 
band   3 # energy    2.13551558 # occ.  2.00000000
 
ion      s      p      d    tot
  1  0.078  0.089  0.749  0.916
 
band   4 # energy    2.84863417 # occ.  2.00000000
 
ion      s      p      d    tot
  1  0.007  0.019  0.927  0.954
 
band   5 # energy    4.57423808 # occ.  2.04112974
 
ion      s      p      d    tot
  1  0.006  0.020  0.941  0.968
 
band   6 # energy    6.13019608 # occ. -0.05357447
 
ion      s      p      d    tot
  1  0.128  0.183  0.588  0.898
 
band   7 # energy   16.01954660 # occ.  0.00000000
 
ion      s      p      d    tot
  1  0.223  0.283  0.263  0.769
 
band   8 # energy   22.25334971 # occ.  0.00000000
 
ion      s      p      d    tot
  1  0.006  0.226  0.243  0.474
 
band   9 # energy   23.60625082 # occ.  0.00000000
 
ion      s      p      d    tot
  1  0.054  0.333  0.156  0.543
 

 k-point   12 :   -0.43750000 0.18750000 0.06250000     weight = 0.02343750

band   1 # energy    0.23630362 # occ.  2.00000000
 
ion      s      p      d    tot
  1  0.123  0.033  0.758  0.914
 
band   2 # energy    1.60143381 # occ.  2.00000000
 
ion      s      p      d    tot
  1  0.000  0.020  0.906  0.927
 
band   3 # energy    2.61852141 # occ.  2.00000000
 
ion      s      p      d    tot
  1  0.000  0.010  0.944  0.954
 
band   4 # energy    2.97201254 # occ.  2.00000000
 
ion      s      p      d    tot
  1  0.004  0.172  0.725  0.902
 
band   5 # energy    4.83913259 # occ.  1.99554526
 
ion      s      p      d    tot
  1  0.001  0.001  0.977  0.978
 
band   6 # energy    8.54471161 # occ.  0.00000000
 
ion      s      p      d    tot
  1  0.014  0.475  0.318  0.807
 
band   7 # energy   12.32527176 # occ.  0.00000000
 
ion      s      p      d    tot
  1  0.466  0.062  0.344  0.872
 
band   8 # energy   21.65807549 # occ.  0.00000000
 
ion      s      p      d    tot
  1  0.016  0.176  0.230  0.423
 
band   9 # energy   23.05690257 # occ.  0.00000000
 
ion      s      p      d    tot
  1  0.072  0.414  0.149  0.636
 

 k-point   13 :   -0.31250000 0.18750000 0.06250000     weight = 0.02343750

band   1 # energy    0.35629046 # occ.  2.00000000
 
ion      s      p      d    tot
  1  0.149  0.046  0.709  0.905
 
band   2 # energy    1.74812267 # occ.  2.00000000
 
ion      s      p      d    tot
  1  0.000  0.012  0.922  0.935
 
band   3 # energy    2.48684255 # occ.  2.00000000
 
ion      s      p      d    tot
  1  0.030  0.118  0.760  0.908
 
band   4 # energy    2.77098916 # occ.  2.00000000
 
ion      s      p      d    tot
  1  0.020  0.074  0.834  0.928
 
band   5 # energy    4.36771455 # occ.  2.01091107
 
ion      s      p      d    tot
  1  0.001  0.011  0.956  0.968
 
band   6 # energy    7.14738403 # occ. -0.00154473
 
ion      s      p      d    tot
  1  0.135  0.235  0.509  0.878
 
band   7 # energy   14.60218857 # occ.  0.00000000
 
ion      s      p      d    tot
  1  0.283  0.237  0.290  0.810
 
band   8 # energy   21.15506592 # occ.  0.00000000
 
ion      s      p      d    tot
  1  0.040  0.282  0.243  0.566
 
band   9 # energy   23.94077311 # occ.  0.00000000
 
ion      s      p      d    tot
  1  0.050  0.256  0.109  0.415
 

 k-point   14 :   -0.18750000 0.18750000 0.06250000     weight = 0.02343750

band   1 # energy    0.33399135 # occ.  2.00000000
 
ion      s      p      d    tot
  1  0.390  0.126  0.305  0.821
 
band   2 # energy    1.44910029 # occ.  2.00000000
 
ion      s      p      d    tot
  1  0.036  0.060  0.828  0.925
 
band   3 # energy    2.18794831 # occ.  2.00000000
 
ion      s      p      d    tot
  1  0.001  0.019  0.920  0.940
 
band   4 # energy    2.94691160 # occ.  2.00000000
 
ion      s      p      d    tot
  1  0.005  0.009  0.943  0.958
 
band   5 # energy    3.46236301 # occ.  2.00000000
 
ion      s      p      d    tot
  1  0.011  0.017  0.929  0.956
 
band   6 # energy    5.19792171 # occ.  0.31313148
 
ion      s      p      d    tot
  1  0.075  0.059  0.815  0.949
 
band   7 # energy   19.28069100 # occ.  0.00000000
 
ion      s      p      d    tot
  1  0.138  0.277  0.243  0.658
 
band   8 # energy   21.47693905 # occ.  0.00000000
 
ion      s      p      d    tot
  1  0.031  0.297  0.300  0.628
 
band   9 # energy   25.79943505 # occ.  0.00000000
 
ion      s      p      d    tot
  1  0.034  0.215  0.103  0.352
 

 k-point   15 :   -0.06250000 0.18750000 0.06250000     weight = 0.02343750

band   1 # energy   -0.74769596 # occ.  2.00000000
 
ion      s      p      d    tot
  1  0.612  0.100  0.059  0.771
 
band   2 # energy    1.58608594 # occ.  2.00000000
 
ion      s      p      d    tot
  1  0.005  0.018  0.924  0.947
 
band   3 # energy    2.49005462 # occ.  2.00000000
 
ion      s      p      d    tot
  1  0.002  0.012  0.943  0.958
 
band   4 # energy    2.61486922 # occ.  2.00000000
 
ion      s      p      d    tot
  1  0.000  0.004  0.960  0.964
 
band   5 # energy    3.34206995 # occ.  2.00000000
 
ion      s      p      d    tot
  1  0.011  0.008  0.941  0.960
 
band   6 # energy    4.06338153 # occ.  2.03503951
 
ion      s      p      d    tot
  1  0.008  0.006  0.958  0.972
 
band   7 # energy   22.12419445 # occ.  0.00000000
 
ion      s      p      d    tot
  1  0.065  0.218  0.222  0.505
 
band   8 # energy   23.69600085 # occ.  0.00000000
 
ion      s      p      d    tot
  1  0.017  0.107  0.211  0.334
 
band   9 # energy   26.76255562 # occ.  0.00000000
 
ion      s      p      d    tot
  1  0.000  0.284  0.098  0.383
 

 k-point   16 :    0.31250000 0.31250000 0.06250000     weight = 0.01171875

band   1 # energy    0.17954869 # occ.  2.00000000
 
ion      s      p      d    tot
  1  0.278  0.099  0.450  0.827
 
band   2 # energy    0.70682939 # occ.  2.00000000
 
ion      s      p      d    tot
  1  0.002  0.005  0.936  0.943
 
band   3 # energy    3.04532463 # occ.  2.00000000
 
ion      s      p      d    tot
  1  0.113  0.085  0.717  0.915
 
band   4 # energy    3.57505894 # occ.  2.00000000
 
ion      s      p      d    tot
  1  0.000  0.017  0.947  0.963
 
band   5 # energy    4.16987596 # occ.  2.00162128
 
ion      s      p      d    tot
  1  0.104  0.101  0.715  0.921
 
band   6 # energy    4.45369719 # occ.  1.63851364
 
ion      s      p      d    tot
  1  0.000  0.001  0.977  0.979
 
band   7 # energy   21.22320513 # occ.  0.00000000
 
ion      s      p      d    tot
  1  0.034  0.394  0.204  0.632
 
band   8 # energy   22.37981495 # occ.  0.00000000
 
ion      s      p      d    tot
  1  0.000  0.498  0.155  0.654
 
band   9 # energy   22.92626563 # occ.  0.00000000
 
ion      s      p      d    tot
  1  0.021  0.148  0.326  0.496
 

 k-point   17 :    0.43750000 0.31250000 0.06250000     weight = 0.02343750

band   1 # energy    0.28633151 # occ.  2.00000000
 
ion      s      p      d    tot
  1  0.099  0.043  0.737  0.879
 
band   2 # energy    0.55454938 # occ.  2.00000000
 
ion      s      p      d    tot
  1  0.014  0.030  0.881  0.925
 
band   3 # energy    2.94739946 # occ.  2.00000000
 
ion      s      p      d    tot
  1  0.077  0.092  0.751  0.920
 
band   4 # energy    3.99131124 # occ.  2.00000000
 
ion      s      p      d    tot
  1  0.008  0.026  0.926  0.960
 
band   5 # energy    4.64938725 # occ.  2.17663375
 
ion      s      p      d    tot
  1  0.006  0.021  0.944  0.971
 
band   6 # energy    6.39689582 # occ. -0.04061497
 
ion      s      p      d    tot
  1  0.159  0.233  0.492  0.884
 
band   7 # energy   18.27796277 # occ.  0.00000000
 
ion      s      p      d    tot
  1  0.121  0.410  0.164  0.695
 
band   8 # energy   20.25830169 # occ.  0.00000000
 
ion      s      p      d    tot
  1  0.025  0.483  0.158  0.666
 
band   9 # energy   20.59643289 # occ.  0.00000000
 
ion      s      p      d    tot
  1  0.112  0.220  0.323  0.656
 

 k-point   18 :   -0.43750000 0.31250000 0.06250000     weight = 0.02343750

band   1 # energy    0.38883262 # occ.  2.00000000
 
ion      s      p      d    tot
  1  0.046  0.017  0.850  0.913
 
band   2 # energy    0.97714235 # occ.  2.00000000
 
ion      s      p      d    tot
  1  0.000  0.081  0.821  0.902
 
band   3 # energy    2.56022630 # occ.  2.00000000
 
ion      s      p      d    tot
  1  0.033  0.109  0.781  0.923
 
band   4 # energy    3.62667937 # occ.  2.00000000
 
ion      s      p      d    tot
  1  0.000  0.021  0.935  0.957
 
band   5 # energy    4.91637281 # occ.  1.14789373
 
ion      s      p      d    tot
  1  0.001  0.001  0.977  0.979
 
band   6 # energy    9.77174513 # occ.  0.00000000
 
ion      s      p      d    tot
  1  0.107  0.401  0.335  0.844
 
band   7 # energy   13.84075936 # occ.  0.00000000
 
ion      s      p      d    tot
  1  0.282  0.291  0.200  0.773
 
band   8 # energy   18.44110761 # occ.  0.00000000
 
ion      s      p      d    tot
  1  0.164  0.258  0.298  0.720
 
band   9 # energy   20.67336737 # occ.  0.00000000
 
ion      s      p      d    tot
  1  0.029  0.466  0.167  0.663
 

 k-point   19 :   -0.31250000 0.31250000 0.06250000     weight = 0.02343750

band   1 # energy    0.83263478 # occ.  2.00000000
 
ion      s      p      d    tot
  1  0.046  0.013  0.866  0.925
 
band   2 # energy    1.39855907 # occ.  2.00000000
 
ion      s      p      d    tot
  1  0.022  0.121  0.745  0.888
 
band   3 # energy    1.99569095 # occ.  2.00000000
 
ion      s      p      d    tot
  1  0.002  0.119  0.801  0.922
 
band   4 # energy    3.36983163 # occ.  2.00000000
 
ion      s      p      d    tot
  1  0.001  0.015  0.938  0.953
 
band   5 # energy    4.41332591 # occ.  2.00217254
 
ion      s      p      d    tot
  1  0.000  0.003  0.968  0.971
 
band   6 # energy   10.00076278 # occ.  0.00000000
 
ion      s      p      d    tot
  1  0.205  0.290  0.334  0.830
 
band   7 # energy   14.19239537 # occ.  0.00000000
 
ion      s      p      d    tot
  1  0.148  0.385  0.292  0.825
 
band   8 # energy   16.97779721 # occ.  0.00000000
 
ion      s      p      d    tot
  1  0.230  0.259  0.245  0.733
 
band   9 # energy   22.36206166 # occ.  0.00000000
 
ion      s      p      d    tot
  1  0.041  0.356  0.233  0.629
 

 k-point   20 :   -0.18750000 0.31250000 0.06250000     weight = 0.02343750

band   1 # energy    0.91802349 # occ.  2.00000000
 
ion      s      p      d    tot
  1  0.144  0.082  0.671  0.898
 
band   2 # energy    1.59098202 # occ.  2.00000000
 
ion      s      p      d    tot
  1  0.017  0.031  0.889  0.937
 
band   3 # energy    1.78764889 # occ.  2.00000000
 
ion      s      p      d    tot
  1  0.046  0.126  0.709  0.880
 
band   4 # energy    3.13543086 # occ.  2.00000000
 
ion      s      p      d    tot
  1  0.005  0.024  0.920  0.949
 
band   5 # energy    3.88673134 # occ.  2.00000000
 
ion      s      p      d    tot
  1  0.001  0.008  0.956  0.964
 
band   6 # energy    7.25210279 # occ.  0.00000000
 
ion      s      p      d    tot
  1  0.170  0.171  0.557  0.898
 
band   7 # energy   16.60793792 # occ.  0.00000000
 
ion      s      p      d    tot
  1  0.190  0.308  0.262  0.761
 
band   8 # energy   18.89687949 # occ.  0.00000000
 
ion      s      p      d    tot
  1  0.096  0.350  0.264  0.710
 
band   9 # energy   24.06664568 # occ.  0.00000000
 
ion      s      p      d    tot
  1  0.048  0.207  0.178  0.433
 

 k-point   21 :   -0.06250000 0.31250000 0.06250000     weight = 0.02343750

band   1 # energy    0.04110464 # occ.  2.00000000
 
ion      s      p      d    tot
  1  0.295  0.061  0.508  0.863
 
band   2 # energy    2.10625456 # occ.  2.00000000
 
ion      s      p      d    tot
  1  0.066  0.072  0.784  0.923
 
band   3 # energy    2.21940491 # occ.  2.00000000
 
ion      s      p      d    tot
  1  0.038  0.085  0.783  0.905
 
band   4 # energy    2.56865482 # occ.  2.00000000
 
ion      s      p      d    tot
  1  0.008  0.014  0.932  0.954
 
band   5 # energy    4.05132927 # occ.  2.00000000
 
ion      s      p      d    tot
  1  0.015  0.025  0.916  0.957
 
band   6 # energy    5.02146934 # occ.  0.58257932
 
ion      s      p      d    tot
  1  0.065  0.070  0.809  0.944
 
band   7 # energy   17.37138385 # occ.  0.00000000
 
ion      s      p      d    tot
  1  0.184  0.276  0.274  0.734
 
band   8 # energy   23.02378483 # occ.  0.00000000
 
ion      s      p      d    tot
  1  0.007  0.118  0.196  0.321
 
band   9 # energy   25.54139951 # occ.  0.00000000
 
ion      s      p      d    tot
  1  0.022  0.374  0.109  0.505
 

 k-point   22 :    0.43750000 0.43750000 0.06250000     weight = 0.01171875

band   1 # energy   -0.18471175 # occ.  2.00000000
 
ion      s      p      d    tot
  1  0.073  0.016  0.786  0.876
 
band   2 # energy    0.06703196 # occ.  2.00000000
 
ion      s      p      d    tot
  1  0.000  0.004  0.938  0.942
 
band   3 # energy    4.48150111 # occ.  2.00000000
 
ion      s      p      d    tot
  1  0.021  0.074  0.855  0.950
 
band   4 # energy    4.55863069 # occ.  2.00000000
 
ion      s      p      d    tot
  1  0.000  0.006  0.968  0.974
 
band   5 # energy    4.96543362 # occ.  0.37583784
 
ion      s      p      d    tot
  1  0.000  0.003  0.979  0.981
 
band   6 # energy    7.01058032 # occ.  0.00000000
 
ion      s      p      d    tot
  1  0.147  0.461  0.214  0.821
 
band   7 # energy   17.81933113 # occ.  0.00000000
 
ion      s      p      d    tot
  1  0.295  0.178  0.305  0.778
 
band   8 # energy   18.58337914 # occ.  0.00000000
 
ion      s      p      d    tot
  1  0.006  0.522  0.112  0.640
 
band   9 # energy   19.35991692 # occ.  0.00000000
 
ion      s      p      d    tot
  1  0.000  0.577  0.047  0.625
 

 k-point   23 :   -0.43750000 0.43750000 0.06250000     weight = 0.02343750

band   1 # energy   -0.13456107 # occ.  2.00000000
 
ion      s      p      d    tot
  1  0.045  0.012  0.827  0.883
 
band   2 # energy    0.15106553 # occ.  2.00000000
 
ion      s      p      d    tot
  1  0.001  0.021  0.916  0.937
 
band   3 # energy    3.97502748 # occ.  2.00000000
 
ion      s      p      d    tot
  1  0.005  0.111  0.823  0.939
 
band   4 # energy    4.52746076 # occ.  2.00000000
 
ion      s      p      d    tot
  1  0.000  0.012  0.959  0.971
 
band   5 # energy    5.13200627 # occ. -0.04926225
 
ion      s      p      d    tot
  1  0.000  0.001  0.981  0.982
 
band   6 # energy    9.54835061 # occ.  0.00000000
 
ion      s      p      d    tot
  1  0.031  0.581  0.203  0.815
 
band   7 # energy   15.83683751 # occ.  0.00000000
 
ion      s      p      d    tot
  1  0.500  0.053  0.257  0.810
 
band   8 # energy   16.75420918 # occ.  0.00000000
 
ion      s      p      d    tot
  1  0.004  0.487  0.192  0.683
 
band   9 # energy   18.54616533 # occ.  0.00000000
 
ion      s      p      d    tot
  1  0.018  0.542  0.084  0.643
 

 k-point   24 :   -0.31250000 0.43750000 0.06250000     weight = 0.02343750

band   1 # energy    0.30679893 # occ.  2.00000000
 
ion      s      p      d    tot
  1  0.031  0.008  0.869  0.908
 
band   2 # energy    0.83673184 # occ.  2.00000000
 
ion      s      p      d    tot
  1  0.000  0.085  0.824  0.909
 
band   3 # energy    2.77841384 # occ.  2.00000000
 
ion      s      p      d    tot
  1  0.005  0.126  0.796  0.927
 
band   4 # energy    3.89534834 # occ.  2.00000000
 
ion      s      p      d    tot
  1  0.002  0.013  0.943  0.959
 
band   5 # energy    4.86719286 # occ.  1.32542634
 
ion      s      p      d    tot
  1  0.000  0.001  0.976  0.977
 
band   6 # energy   11.70481144 # occ.  0.00000000
 
ion      s      p      d    tot
  1  0.026  0.528  0.277  0.830
 
band   7 # energy   13.27464498 # occ.  0.00000000
 
ion      s      p      d    tot
  1  0.264  0.321  0.177  0.762
 
band   8 # energy   16.18321846 # occ.  0.00000000
 
ion      s      p      d    tot
  1  0.302  0.156  0.318  0.776
 
band   9 # energy   20.25673854 # occ.  0.00000000
 
ion      s      p      d    tot
  1  0.026  0.482  0.161  0.669
 

 k-point   25 :   -0.18750000 0.43750000 0.06250000     weight = 0.02343750

band   1 # energy    0.59447217 # occ.  2.00000000
 
ion      s      p      d    tot
  1  0.086  0.040  0.794  0.920
 
band   2 # energy    1.37113454 # occ.  2.00000000
 
ion      s      p      d    tot
  1  0.004  0.050  0.853  0.907
 
band   3 # energy    2.46011563 # occ.  2.00000000
 
ion      s      p      d    tot
  1  0.000  0.152  0.758  0.910
 
band   4 # energy    3.00984642 # occ.  2.00000000
 
ion      s      p      d    tot
  1  0.000  0.012  0.942  0.954
 
band   5 # energy    4.67084816 # occ.  2.01943711
 
ion      s      p      d    tot
  1  0.001  0.001  0.972  0.974
 
band   6 # energy    9.78075684 # occ.  0.00000000
 
ion      s      p      d    tot
  1  0.053  0.441  0.315  0.809
 
band   7 # energy   12.52625492 # occ.  0.00000000
 
ion      s      p      d    tot
  1  0.403  0.138  0.316  0.857
 
band   8 # energy   19.45541154 # occ.  0.00000000
 
ion      s      p      d    tot
  1  0.102  0.311  0.252  0.665
 
band   9 # energy   22.51148016 # occ.  0.00000000
 
ion      s      p      d    tot
  1  0.047  0.348  0.204  0.598
 

 k-point   26 :   -0.06250000 0.43750000 0.06250000     weight = 0.02343750

band   1 # energy   -0.04349906 # occ.  2.00000000
 
ion      s      p      d    tot
  1  0.161  0.020  0.728  0.909
 
band   2 # energy    1.88359944 # occ.  2.00000000
 
ion      s      p      d    tot
  1  0.000  0.006  0.938  0.945
 
band   3 # energy    2.33495948 # occ.  2.00000000
 
ion      s      p      d    tot
  1  0.000  0.004  0.953  0.957
 
band   4 # energy    3.47102032 # occ.  2.00000000
 
ion      s      p      d    tot
  1  0.022  0.196  0.671  0.889
 
band   5 # energy    4.76739667 # occ.  2.05327619
 
ion      s      p      d    tot
  1  0.000  0.006  0.969  0.976
 
band   6 # energy    6.90088471 # occ. -0.00204680
 
ion      s      p      d    tot
  1  0.069  0.367  0.398  0.834
 
band   7 # energy   13.09228921 # occ.  0.00000000
 
ion      s      p      d    tot
  1  0.398  0.120  0.339  0.858
 
band   8 # energy   22.37538388 # occ.  0.00000000
 
ion      s      p      d    tot
  1  0.001  0.068  0.126  0.195
 
band   9 # energy   24.64580811 # occ.  0.00000000
 
ion      s      p      d    tot
  1  0.042  0.449  0.098  0.590
 
