PROCAR new format
# of k-points:   60         # of bands:   9         # of ions:   1

 k-point    1 :    0.06250000 0.06250000 0.06250000     weight = 0.00390625

band   1 # energy   -2.06790353 # occ.  2.00000000
 
ion      s      p      d    tot
  1  0.746  0.011  0.000  0.758
 
band   2 # energy    2.05528221 # occ.  2.00000000
 
ion      s      p      d    tot
  1  0.000  0.002  0.964  0.966
 
band   3 # energy    2.15404937 # occ.  2.00000000
 
ion      s      p      d    tot
  1  0.000  0.000  0.968  0.968
 
band   4 # energy    2.15404944 # occ.  2.00000000
 
ion      s      p      d    tot
  1  0.000  0.000  0.968  0.968
 
band   5 # energy    3.68336943 # occ.  2.00000000
 
ion      s      p      d    tot
  1  0.000  0.000  0.977  0.977
 
band   6 # energy    3.68336950 # occ.  2.00000000
 
ion      s      p      d    tot
  1  0.000  0.000  0.977  0.977
 
band   7 # energy   23.27847672 # occ.  0.00000000
 
ion      s      p      d    tot
  1  0.000  0.001  0.027  0.028
 
band   8 # energy   26.69591583 # occ.  0.00000000
 
ion      s      p      d    tot
  1  0.017  0.192  0.028  0.237
 
band   9 # energy   27.56713473 # occ.  0.00000000
 
ion      s      p      d    tot
  1  0.001  0.563  0.009  0.573
 

 k-point    2 :    0.18750000 0.06250000 0.06250000     weight = 0.01171875

band   1 # energy   -1.36561459 # occ.  2.00000000
 
ion      s      p      d    tot
  1  0.684  0.061  0.018  0.763
 
band   2 # energy    1.82091609 # occ.  2.00000000
 
ion      s      p      d    tot
  1  0.003  0.013  0.940  0.955
 
band   3 # energy    2.36683990 # occ.  2.00000000
 
ion      s      p      d    tot
  1  0.000  0.000  0.966  0.966
 
band   4 # energy    2.39086367 # occ.  2.00000000
 
ion      s      p      d    tot
  1  0.002  0.009  0.953  0.964
 
band   5 # energy    3.46306270 # occ.  2.00000000
 
ion      s      p      d    tot
  1  0.000  0.000  0.969  0.969
 
band   6 # energy    3.80055963 # occ.  2.00000000
 
ion      s      p      d    tot
  1  0.002  0.001  0.970  0.974
 
band   7 # energy   23.19440492 # occ.  0.00000000
 
ion      s      p      d    tot
  1  0.022  0.123  0.207  0.353
 
band   8 # energy   24.24348610 # occ.  0.00000000
 
ion      s      p      d    tot
  1  0.036  0.088  0.058  0.182
 
band   9 # energy   27.23617045 # occ.  0.00000000
 
ion      s      p      d    tot
  1  0.000  0.341  0.075  0.416
 

 k-point    3 :    0.31250000 0.06250000 0.06250000     weight = 0.01171875

band   1 # energy   -0.28304109 # occ.  2.00000000
 
ion      s      p      d    tot
  1  0.432  0.076  0.317  0.826
 
band   2 # energy    2.04930739 # occ.  2.00000000
 
ion      s      p      d    tot
  1  0.088  0.111  0.700  0.900
 
band   3 # energy    2.40422643 # occ.  2.00000000
 
ion      s      p      d    tot
  1  0.018  0.035  0.888  0.942
 
band   4 # energy    2.44571202 # occ.  2.00000000
 
ion      s      p      d    tot
  1  0.000  0.000  0.962  0.962
 
band   5 # energy    3.70433862 # occ.  2.00000000
 
ion      s      p      d    tot
  1  0.000  0.002  0.962  0.965
 
band   6 # energy    4.35227370 # occ.  2.00032775
 
ion      s      p      d    tot
  1  0.021  0.020  0.924  0.964
 
band   7 # energy   18.83212881 # occ.  0.00000000
 
ion      s      p      d    tot
  1  0.142  0.268  0.266  0.676
 
band   8 # energy   23.64734830 # occ.  0.00000000
 
ion      s      p      d    tot
  1  0.005  0.049  0.137  0.191
 
band   9 # energy   27.01290951 # occ.  0.00000000
 
ion      s      p      d    tot
  1  0.009  0.453  0.144  0.606
 

 k-point    4 :    0.43750000 0.06250000 0.06250000     weight = 0.01171875

band   1 # energy   -0.18134118 # occ.  2.00000000
 
ion      s      p      d    tot
  1  0.200  0.016  0.685  0.901
 
band   2 # energy    2.09381883 # occ.  2.00000000
 
ion      s      p      d    tot
  1  0.000  0.003  0.953  0.955
 
band   3 # energy    2.21048937 # occ.  2.00000000
 
ion      s      p      d    tot
  1  0.000  0.000  0.958  0.958
 
band   4 # energy    3.76765829 # occ.  2.00000000
 
ion      s      p      d    tot
  1  0.071  0.258  0.527  0.856
 
band   5 # energy    4.47900051 # occ.  2.00623049
 
ion      s      p      d    tot
  1  0.000  0.002  0.971  0.973
 
band   6 # energy    5.56565420 # occ. -0.00007016
 
ion      s      p      d    tot
  1  0.079  0.211  0.597  0.887
 
band   7 # energy   14.24287363 # occ.  0.00000000
 
ion      s      p      d    tot
  1  0.325  0.182  0.320  0.828
 
band   8 # energy   22.66628596 # occ.  0.00000000
 
ion      s      p      d    tot
  1  0.001  0.041  0.064  0.105
 
band   9 # energy   25.89100560 # occ.  0.00000000
 
ion      s      p      d    tot
  1  0.018  0.475  0.082  0.575
 

 k-point    5 :   -0.43750000 0.06250000 0.06250000     weight = 0.01171875

band   1 # energy   -0.24990552 # occ.  2.00000000
 
ion      s      p      d    tot
  1  0.167  0.006  0.738  0.911
 
band   2 # energy    1.98368753 # occ.  2.00000000
 
ion      s      p      d    tot
  1  0.000  0.002  0.951  0.953
 
band   3 # energy    2.14665429 # occ.  2.00000000
 
ion      s      p      d    tot
  1  0.000  0.001  0.956  0.958
 
band   4 # energy    4.23884711 # occ.  2.00001102
 
ion      s      p      d    tot
  1  0.002  0.164  0.744  0.910
 
band   5 # energy    4.90415852 # occ.  1.23103996
 
ion      s      p      d    tot
  1  0.000  0.000  0.981  0.981
 
band   6 # energy    6.58601050 # occ.  0.00000000
 
ion      s      p      d    tot
  1  0.009  0.519  0.251  0.780
 
band   7 # energy   12.28310515 # occ.  0.00000000
 
ion      s      p      d    tot
  1  0.487  0.020  0.389  0.896
 
band   8 # energy   22.36432375 # occ.  0.00000000
 
ion      s      p      d    tot
  1  0.000  0.032  0.037  0.069
 
band   9 # energy   26.04937662 # occ.  0.00000000
 
ion      s      p      d    tot
  1  0.020  0.480  0.053  0.554
 

 k-point    6 :   -0.31250000 0.06250000 0.06250000     weight = 0.01171875

band   1 # energy   -0.15320251 # occ.  2.00000000
 
ion      s      p      d    tot
  1  0.241  0.027  0.618  0.887
 
band   2 # energy    2.14808436 # occ.  2.00000000
 
ion      s      p      d    tot
  1  0.000  0.001  0.955  0.956
 
band   3 # energy    2.31795272 # occ.  2.00000000
 
ion      s      p      d    tot
  1  0.000  0.003  0.957  0.960
 
band   4 # energy    3.09911783 # occ.  2.00000000
 
ion      s      p      d    tot
  1  0.113  0.233  0.505  0.851
 
band   5 # energy    4.60724598 # occ.  2.04405591
 
ion      s      p      d    tot
  1  0.000  0.002  0.974  0.976
 
band   6 # energy    4.79176517 # occ.  1.91968885
 
ion      s      p      d    tot
  1  0.074  0.131  0.707  0.913
 
band   7 # energy   15.67180300 # occ.  0.00000000
 
ion      s      p      d    tot
  1  0.252  0.237  0.296  0.785
 
band   8 # energy   23.06272429 # occ.  0.00000000
 
ion      s      p      d    tot
  1  0.000  0.028  0.067  0.095
 
band   9 # energy   26.36117091 # occ.  0.00000000
 
ion      s      p      d    tot
  1  0.000  0.485  0.152  0.636
 

 k-point    7 :   -0.18750000 0.06250000 0.06250000     weight = 0.01171875

band   1 # energy   -0.57439177 # occ.  2.00000000
 
ion      s      p      d    tot
  1  0.548  0.091  0.152  0.791
 
band   2 # energy    1.79012919 # occ.  2.00000000
 
ion      s      p      d    tot
  1  0.046  0.063  0.814  0.923
 
band   3 # energy    2.43759844 # occ.  2.00000000
 
ion      s      p      d    tot
  1  0.002  0.008  0.948  0.958
 
band   4 # energy    2.49386219 # occ.  2.00000000
 
ion      s      p      d    tot
  1  0.000  0.005  0.959  0.964
 
band   5 # energy    3.63588832 # occ.  2.00000000
 
ion      s      p      d    tot
  1  0.015  0.013  0.931  0.960
 
band   6 # energy    4.00219193 # occ.  2.00000000
 
ion      s      p      d    tot
  1  0.000  0.002  0.970  0.972
 
band   7 # energy   20.42751142 # occ.  0.00000000
 
ion      s      p      d    tot
  1  0.100  0.255  0.249  0.605
 
band   8 # energy   24.12917943 # occ.  0.00000000
 
ion      s      p      d    tot
  1  0.006  0.007  0.114  0.127
 
band   9 # energy   27.05590657 # occ.  0.00000000
 
ion      s      p      d    tot
  1  0.000  0.449  0.195  0.644
 

 k-point    8 :   -0.06250000 0.06250000 0.06250000     weight = 0.01171875

band   1 # energy   -1.70350909 # occ.  2.00000000
 
ion      s      p      d    tot
  1  0.717  0.038  0.005  0.759
 
band   2 # energy    1.87995184 # occ.  2.00000000
 
ion      s      p      d    tot
  1  0.000  0.003  0.958  0.961
 
band   3 # energy    2.30461755 # occ.  2.00000000
 
ion      s      p      d    tot
  1  0.001  0.004  0.962  0.966
 
band   4 # energy    2.31018916 # occ.  2.00000000
 
ion      s      p      d    tot
  1  0.000  0.004  0.963  0.967
 
band   5 # energy    3.49271782 # occ.  2.00000000
 
ion      s      p      d    tot
  1  0.001  0.001  0.969  0.971
 
band   6 # energy    3.77669899 # occ.  2.00000000
 
ion      s      p      d    tot
  1  0.000  0.000  0.977  0.977
 
band   7 # energy   23.51619797 # occ.  0.00000000
 
ion      s      p      d    tot
  1  0.001  0.014  0.104  0.119
 
band   8 # energy   25.39366619 # occ.  0.00000000
 
ion      s      p      d    tot
  1  0.036  0.148  0.056  0.241
 
band   9 # energy   27.32998548 # occ.  0.00000000
 
ion      s      p      d    tot
  1  0.000  0.361  0.089  0.450
 

 k-point    9 :    0.18750000 0.18750000 0.06250000     weight = 0.01171875

band   1 # energy   -1.03365138 # occ.  2.00000000
 
ion      s      p      d    tot
  1  0.649  0.086  0.029  0.764
 
band   2 # energy    1.54338797 # occ.  2.00000000
 
ion      s      p      d    tot
  1  0.001  0.003  0.950  0.954
 
band   3 # energy    2.58700937 # occ.  2.00000000
 
ion      s      p      d    tot
  1  0.000  0.009  0.954  0.963
 
band   4 # energy    2.61486028 # occ.  2.00000000
 
ion      s      p      d    tot
  1  0.000  0.009  0.955  0.965
 
band   5 # energy    3.24000710 # occ.  2.00000000
 
ion      s      p      d    tot
  1  0.017  0.008  0.934  0.958
 
band   6 # energy    3.95178349 # occ.  2.00000000
 
ion      s      p      d    tot
  1  0.000  0.000  0.977  0.977
 
band   7 # energy   23.58083293 # occ.  0.00000000
 
ion      s      p      d    tot
  1  0.021  0.132  0.224  0.377
 
band   8 # energy   24.47346718 # occ.  0.00000000
 
ion      s      p      d    tot
  1  0.028  0.043  0.117  0.189
 
band   9 # energy   26.09262077 # occ.  0.00000000
 
ion      s      p      d    tot
  1  0.000  0.365  0.187  0.553
 

 k-point   10 :    0.31250000 0.18750000 0.06250000     weight = 0.02343750

band   1 # energy   -0.02415773 # occ.  2.00000000
 
ion      s      p      d    tot
  1  0.475  0.132  0.186  0.792
 
band   2 # energy    1.24675289 # occ.  2.00000000
 
ion      s      p      d    tot
  1  0.012  0.024  0.904  0.939
 
band   3 # energy    2.38561891 # occ.  2.00000000
 
ion      s      p      d    tot
  1  0.009  0.008  0.933  0.949
 
band   4 # energy    2.99130996 # occ.  2.00000000
 
ion      s      p      d    tot
  1  0.002  0.012  0.947  0.962
 
band   5 # energy    3.61601196 # occ.  2.00000000
 
ion      s      p      d    tot
  1  0.040  0.038  0.870  0.948
 
band   6 # energy    4.47827196 # occ.  2.00614239
 
ion      s      p      d    tot
  1  0.028  0.022  0.916  0.966
 
band   7 # energy   20.87105292 # occ.  0.00000000
 
ion      s      p      d    tot
  1  0.087  0.278  0.235  0.600
 
band   8 # energy   22.89673164 # occ.  0.00000000
 
ion      s      p      d    tot
  1  0.014  0.256  0.279  0.549
 
band   9 # energy   25.49730963 # occ.  0.00000000
 
ion      s      p      d    tot
  1  0.012  0.226  0.191  0.429
 

 k-point   11 :    0.43750000 0.18750000 0.06250000     weight = 0.02343750

band   1 # energy    0.30422088 # occ.  2.00000000
 
ion      s      p      d    tot
  1  0.170  0.049  0.675  0.894
 
band   2 # energy    1.76722308 # occ.  2.00000000
 
ion      s      p      d    tot
  1  0.010  0.063  0.834  0.907
 
band   3 # energy    2.13469983 # occ.  2.00000000
 
ion      s      p      d    tot
  1  0.078  0.089  0.749  0.915
 
band   4 # energy    2.84694130 # occ.  2.00000000
 
ion      s      p      d    tot
  1  0.007  0.019  0.927  0.954
 
band   5 # energy    4.57227630 # occ.  2.02906642
 
ion      s      p      d    tot
  1  0.006  0.020  0.941  0.968
 
band   6 # energy    6.12874137 # occ.  0.00000000
 
ion      s      p      d    tot
  1  0.128  0.183  0.588  0.898
 
band   7 # energy   16.01854079 # occ.  0.00000000
 
ion      s      p      d    tot
  1  0.223  0.283  0.263  0.769
 
band   8 # energy   22.25298327 # occ.  0.00000000
 
ion      s      p      d    tot
  1  0.006  0.226  0.243  0.474
 
band   9 # energy   23.60563073 # occ.  0.00000000
 
ion      s      p      d    tot
  1  0.054  0.333  0.156  0.543
 

 k-point   12 :   -0.43750000 0.18750000 0.06250000     weight = 0.02343750

band   1 # energy    0.23578191 # occ.  2.00000000
 
ion      s      p      d    tot
  1  0.123  0.033  0.758  0.914
 
band   2 # energy    1.59969683 # occ.  2.00000000
 
ion      s      p      d    tot
  1  0.000  0.020  0.906  0.927
 
band   3 # energy    2.61665695 # occ.  2.00000000
 
ion      s      p      d    tot
  1  0.000  0.010  0.944  0.954
 
band   4 # energy    2.97099825 # occ.  2.00000000
 
ion      s      p      d    tot
  1  0.004  0.172  0.726  0.902
 
band   5 # energy    4.83724412 # occ.  1.70926851
 
ion      s      p      d    tot
  1  0.001  0.001  0.977  0.978
 
band   6 # energy    8.54363647 # occ.  0.00000000
 
ion      s      p      d    tot
  1  0.014  0.475  0.318  0.807
 
band   7 # energy   12.32401553 # occ.  0.00000000
 
ion      s      p      d    tot
  1  0.466  0.062  0.344  0.872
 
band   8 # energy   21.65769619 # occ.  0.00000000
 
ion      s      p      d    tot
  1  0.016  0.176  0.230  0.423
 
band   9 # energy   23.05618294 # occ.  0.00000000
 
ion      s      p      d    tot
  1  0.072  0.414  0.149  0.636
 

 k-point   13 :   -0.31250000 0.18750000 0.06250000     weight = 0.02343750

band   1 # energy    0.35577260 # occ.  2.00000000
 
ion      s      p      d    tot
  1  0.149  0.046  0.709  0.905
 
band   2 # energy    1.74644452 # occ.  2.00000000
 
ion      s      p      d    tot
  1  0.000  0.012  0.922  0.935
 
band   3 # energy    2.48555386 # occ.  2.00000000
 
ion      s      p      d    tot
  1  0.030  0.118  0.761  0.909
 
band   4 # energy    2.76943917 # occ.  2.00000000
 
ion      s      p      d    tot
  1  0.020  0.074  0.834  0.928
 
band   5 # energy    4.36594870 # occ.  2.00047057
 
ion      s      p      d    tot
  1  0.001  0.011  0.956  0.968
 
band   6 # energy    7.14597231 # occ.  0.00000000
 
ion      s      p      d    tot
  1  0.135  0.235  0.508  0.878
 
band   7 # energy   14.60108768 # occ.  0.00000000
 
ion      s      p      d    tot
  1  0.283  0.237  0.290  0.810
 
band   8 # energy   21.15450405 # occ.  0.00000000
 
ion      s      p      d    tot
  1  0.040  0.283  0.243  0.566
 
band   9 # energy   23.94048927 # occ.  0.00000000
 
ion      s      p      d    tot
  1  0.050  0.256  0.109  0.415
 

 k-point   14 :   -0.18750000 0.18750000 0.06250000     weight = 0.02343750

band   1 # energy    0.33353639 # occ.  2.00000000
 
ion      s      p      d    tot
  1  0.390  0.126  0.305  0.821
 
band   2 # energy    1.44839174 # occ.  2.00000000
 
ion      s      p      d    tot
  1  0.036  0.060  0.828  0.925
 
band   3 # energy    2.18621272 # occ.  2.00000000
 
ion      s      p      d    tot
  1  0.001  0.019  0.920  0.940
 
band   4 # energy    2.94530169 # occ.  2.00000000
 
ion      s      p      d    tot
  1  0.005  0.009  0.943  0.958
 
band   5 # energy    3.46051196 # occ.  2.00000000
 
ion      s      p      d    tot
  1  0.011  0.017  0.929  0.956
 
band   6 # energy    5.19602106 # occ. -0.06840151
 
ion      s      p      d    tot
  1  0.075  0.059  0.815  0.949
 
band   7 # energy   19.27983575 # occ.  0.00000000
 
ion      s      p      d    tot
  1  0.138  0.277  0.243  0.658
 
band   8 # energy   21.47642281 # occ.  0.00000000
 
ion      s      p      d    tot
  1  0.031  0.297  0.300  0.628
 
band   9 # energy   25.79925977 # occ.  0.00000000
 
ion      s      p      d    tot
  1  0.034  0.215  0.103  0.351
 

 k-point   15 :   -0.06250000 0.18750000 0.06250000     weight = 0.02343750

band   1 # energy   -0.74803440 # occ.  2.00000000
 
ion      s      p      d    tot
  1  0.612  0.100  0.059  0.771
 
band   2 # energy    1.58529537 # occ.  2.00000000
 
ion      s      p      d    tot
  1  0.005  0.018  0.924  0.947
 
band   3 # energy    2.48869988 # occ.  2.00000000
 
ion      s      p      d    tot
  1  0.002  0.012  0.944  0.958
 
band   4 # energy    2.61378408 # occ.  2.00000000
 
ion      s      p      d    tot
  1  0.000  0.004  0.960  0.964
 
band   5 # energy    3.33974985 # occ.  2.00000000
 
ion      s      p      d    tot
  1  0.011  0.008  0.941  0.960
 
band   6 # energy    4.06094808 # occ.  2.00000001
 
ion      s      p      d    tot
  1  0.008  0.006  0.958  0.972
 
band   7 # energy   22.12373592 # occ.  0.00000000
 
ion      s      p      d    tot
  1  0.065  0.218  0.222  0.506
 
band   8 # energy   23.69627094 # occ.  0.00000000
 
ion      s      p      d    tot
  1  0.017  0.107  0.211  0.334
 
band   9 # energy   26.76359774 # occ.  0.00000000
 
ion      s      p      d    tot
  1  0.000  0.280  0.099  0.379
 

 k-point   16 :    0.31250000 0.31250000 0.06250000     weight = 0.01171875

band   1 # energy    0.17851467 # occ.  2.00000000
 
ion      s      p      d    tot
  1  0.277  0.099  0.450  0.827
 
band   2 # energy    0.70617526 # occ.  2.00000000
 
ion      s      p      d    tot
  1  0.002  0.005  0.936  0.943
 
band   3 # energy    3.04402476 # occ.  2.00000000
 
ion      s      p      d    tot
  1  0.113  0.085  0.717  0.915
 
band   4 # energy    3.57374470 # occ.  2.00000000
 
ion      s      p      d    tot
  1  0.000  0.017  0.947  0.963
 
band   5 # energy    4.16859090 # occ.  2.00000095
 
ion      s      p      d    tot
  1  0.104  0.101  0.715  0.921
 
band   6 # energy    4.45105183 # occ.  2.00352585
 
ion      s      p      d    tot
  1  0.000  0.001  0.977  0.979
 
band   7 # energy   21.22246066 # occ.  0.00000000
 
ion      s      p      d    tot
  1  0.034  0.394  0.204  0.632
 
band   8 # energy   22.37905413 # occ.  0.00000000
 
ion      s      p      d    tot
  1  0.000  0.498  0.155  0.654
 
band   9 # energy   22.92551826 # occ.  0.00000000
 
ion      s      p      d    tot
  1  0.021  0.148  0.326  0.495
 

 k-point   17 :    0.43750000 0.31250000 0.06250000     weight = 0.02343750

band   1 # energy    0.28506950 # occ.  2.00000000
 
ion      s      p      d    tot
  1  0.099  0.043  0.737  0.879
 
band   2 # energy    0.55374755 # occ.  2.00000000
 
ion      s      p      d    tot
  1  0.014  0.029  0.882  0.925
 
band   3 # energy    2.94635765 # occ.  2.00000000
 
ion      s      p      d    tot
  1  0.077  0.092  0.751  0.920
 
band   4 # energy    3.98953259 # occ.  2.00000000
 
ion      s      p      d    tot
  1  0.008  0.026  0.926  0.960
 
band   5 # energy    4.64729813 # occ.  2.06186111
 
ion      s      p      d    tot
  1  0.006  0.021  0.944  0.971
 
band   6 # energy    6.39566752 # occ.  0.00000000
 
ion      s      p      d    tot
  1  0.160  0.233  0.491  0.884
 
band   7 # energy   18.27713858 # occ.  0.00000000
 
ion      s      p      d    tot
  1  0.121  0.410  0.164  0.695
 
band   8 # energy   20.25756605 # occ.  0.00000000
 
ion      s      p      d    tot
  1  0.025  0.483  0.158  0.666
 
band   9 # energy   20.59525463 # occ.  0.00000000
 
ion      s      p      d    tot
  1  0.112  0.220  0.323  0.656
 

 k-point   18 :   -0.43750000 0.31250000 0.06250000     weight = 0.02343750

band   1 # energy    0.38777746 # occ.  2.00000000
 
ion      s      p      d    tot
  1  0.046  0.017  0.850  0.913
 
band   2 # energy    0.97589703 # occ.  2.00000000
 
ion      s      p      d    tot
  1  0.000  0.081  0.822  0.902
 
band   3 # energy    2.55939530 # occ.  2.00000000
 
ion      s      p      d    tot
  1  0.033  0.109  0.781  0.923
 
band   4 # energy    3.62449858 # occ.  2.00000000
 
ion      s      p      d    tot
  1  0.000  0.021  0.935  0.957
 
band   5 # energy    4.91465505 # occ.  1.14407318
 
ion      s      p      d    tot
  1  0.001  0.001  0.977  0.979
 
band   6 # energy    9.77068446 # occ.  0.00000000
 
ion      s      p      d    tot
  1  0.107  0.401  0.335  0.844
 
band   7 # energy   13.83979919 # occ.  0.00000000
 
ion      s      p      d    tot
  1  0.282  0.291  0.200  0.773
 
band   8 # energy   18.43981126 # occ.  0.00000000
 
ion      s      p      d    tot
  1  0.164  0.258  0.298  0.720
 
band   9 # energy   20.67253754 # occ.  0.00000000
 
ion      s      p      d    tot
  1  0.029  0.466  0.167  0.663
 

 k-point   19 :   -0.31250000 0.31250000 0.06250000     weight = 0.02343750

band   1 # energy    0.83159807 # occ.  2.00000000
 
ion      s      p      d    tot
  1  0.046  0.013  0.866  0.925
 
band   2 # energy    1.39722807 # occ.  2.00000000
 
ion      s      p      d    tot
  1  0.022  0.121  0.744  0.888
 
band   3 # energy    1.99492534 # occ.  2.00000000
 
ion      s      p      d    tot
  1  0.002  0.119  0.801  0.922
 
band   4 # energy    3.36742065 # occ.  2.00000000
 
ion      s      p      d    tot
  1  0.001  0.015  0.938  0.953
 
band   5 # energy    4.41197655 # occ.  2.00147230
 
ion      s      p      d    tot
  1  0.000  0.003  0.968  0.971
 
band   6 # energy    9.99957630 # occ.  0.00000000
 
ion      s      p      d    tot
  1  0.205  0.290  0.334  0.830
 
band   7 # energy   14.19143967 # occ.  0.00000000
 
ion      s      p      d    tot
  1  0.148  0.385  0.292  0.825
 
band   8 # energy   16.97655926 # occ.  0.00000000
 
ion      s      p      d    tot
  1  0.230  0.259  0.245  0.733
 
band   9 # energy   22.36121697 # occ.  0.00000000
 
ion      s      p      d    tot
  1  0.041  0.356  0.233  0.629
 

 k-point   20 :   -0.18750000 0.31250000 0.06250000     weight = 0.02343750

band   1 # energy    0.91745455 # occ.  2.00000000
 
ion      s      p      d    tot
  1  0.144  0.082  0.671  0.898
 
band   2 # energy    1.58990317 # occ.  2.00000000
 
ion      s      p      d    tot
  1  0.016  0.031  0.890  0.937
 
band   3 # energy    1.78619697 # occ.  2.00000000
 
ion      s      p      d    tot
  1  0.046  0.126  0.709  0.880
 
band   4 # energy    3.13324940 # occ.  2.00000000
 
ion      s      p      d    tot
  1  0.005  0.024  0.920  0.949
 
band   5 # energy    3.88532837 # occ.  2.00000000
 
ion      s      p      d    tot
  1  0.001  0.008  0.956  0.964
 
band   6 # energy    7.25058362 # occ.  0.00000000
 
ion      s      p      d    tot
  1  0.170  0.171  0.557  0.898
 
band   7 # energy   16.60692772 # occ.  0.00000000
 
ion      s      p      d    tot
  1  0.190  0.308  0.262  0.761
 
band   8 # energy   18.89602507 # occ.  0.00000000
 
ion      s      p      d    tot
  1  0.096  0.350  0.264  0.710
 
band   9 # energy   24.06625771 # occ.  0.00000000
 
ion      s      p      d    tot
  1  0.048  0.207  0.178  0.433
 

 k-point   21 :   -0.06250000 0.31250000 0.06250000     weight = 0.02343750

band   1 # energy    0.04064651 # occ.  2.00000000
 
ion      s      p      d    tot
  1  0.295  0.061  0.508  0.863
 
band   2 # energy    2.10536166 # occ.  2.00000000
 
ion      s      p      d    tot
  1  0.066  0.072  0.785  0.923
 
band   3 # energy    2.21777946 # occ.  2.00000000
 
ion      s      p      d    tot
  1  0.038  0.085  0.782  0.905
 
band   4 # energy    2.56707017 # occ.  2.00000000
 
ion      s      p      d    tot
  1  0.008  0.014  0.932  0.954
 
band   5 # energy    4.04945798 # occ.  2.00000001
 
ion      s      p      d    tot
  1  0.015  0.025  0.916  0.957
 
band   6 # energy    5.01962871 # occ.  0.32995272
 
ion      s      p      d    tot
  1  0.065  0.070  0.809  0.944
 
band   7 # energy   17.37043614 # occ.  0.00000000
 
ion      s      p      d    tot
  1  0.184  0.276  0.274  0.734
 
band   8 # energy   23.02390841 # occ.  0.00000000
 
ion      s      p      d    tot
  1  0.007  0.118  0.196  0.321
 
band   9 # energy   25.54091912 # occ.  0.00000000
 
ion      s      p      d    tot
  1  0.022  0.374  0.109  0.505
 

 k-point   22 :    0.43750000 0.43750000 0.06250000     weight = 0.01171875

band   1 # energy   -0.18623063 # occ.  2.00000000
 
ion      s      p      d    tot
  1  0.073  0.016  0.787  0.876
 
band   2 # energy    0.06647846 # occ.  2.00000000
 
ion      s      p      d    tot
  1  0.000  0.004  0.938  0.942
 
band   3 # energy    4.48035629 # occ.  2.00639727
 
ion      s      p      d    tot
  1  0.021  0.074  0.855  0.950
 
band   4 # energy    4.55633364 # occ.  2.02329932
 
ion      s      p      d    tot
  1  0.000  0.006  0.968  0.974
 
band   5 # energy    4.96351130 # occ.  0.73492251
 
ion      s      p      d    tot
  1  0.000  0.003  0.979  0.981
 
band   6 # energy    7.00989549 # occ.  0.00000000
 
ion      s      p      d    tot
  1  0.147  0.461  0.214  0.821
 
band   7 # energy   17.81774364 # occ.  0.00000000
 
ion      s      p      d    tot
  1  0.295  0.178  0.305  0.778
 
band   8 # energy   18.58267694 # occ.  0.00000000
 
ion      s      p      d    tot
  1  0.006  0.522  0.112  0.640
 
band   9 # energy   19.35930115 # occ.  0.00000000
 
ion      s      p      d    tot
  1  0.000  0.577  0.047  0.625
 

 k-point   23 :   -0.43750000 0.43750000 0.06250000     weight = 0.02343750

band   1 # energy   -0.13609008 # occ.  2.00000000
 
ion      s      p      d    tot
  1  0.045  0.012  0.827  0.883
 
band   2 # energy    0.15046316 # occ.  2.00000000
 
ion      s      p      d    tot
  1  0.001  0.021  0.916  0.937
 
band   3 # energy    3.97397274 # occ.  2.00000000
 
ion      s      p      d    tot
  1  0.005  0.111  0.823  0.939
 
band   4 # energy    4.52471676 # occ.  2.01424855
 
ion      s      p      d    tot
  1  0.000  0.012  0.959  0.971
 
band   5 # energy    5.13061099 # occ. -0.04905394
 
ion      s      p      d    tot
  1  0.000  0.001  0.981  0.982
 
band   6 # energy    9.54781017 # occ.  0.00000000
 
ion      s      p      d    tot
  1  0.031  0.581  0.203  0.815
 
band   7 # energy   15.83511617 # occ.  0.00000000
 
ion      s      p      d    tot
  1  0.500  0.053  0.257  0.810
 
band   8 # energy   16.75330059 # occ.  0.00000000
 
ion      s      p      d    tot
  1  0.004  0.487  0.191  0.682
 
band   9 # energy   18.54546291 # occ.  0.00000000
 
ion      s      p      d    tot
  1  0.018  0.542  0.083  0.643
 

 k-point   24 :   -0.31250000 0.43750000 0.06250000     weight = 0.02343750

band   1 # energy    0.30552591 # occ.  2.00000000
 
ion      s      p      d    tot
  1  0.031  0.008  0.869  0.907
 
band   2 # energy    0.83572402 # occ.  2.00000000
 
ion      s      p      d    tot
  1  0.000  0.085  0.824  0.909
 
band   3 # energy    2.77760191 # occ.  2.00000000
 
ion      s      p      d    tot
  1  0.005  0.126  0.796  0.927
 
band   4 # energy    3.89277582 # occ.  2.00000000
 
ion      s      p      d    tot
  1  0.002  0.013  0.943  0.959
 
band   5 # energy    4.86580028 # occ.  1.52588571
 
ion      s      p      d    tot
  1  0.000  0.001  0.976  0.977
 
band   6 # energy   11.70403901 # occ.  0.00000000
 
ion      s      p      d    tot
  1  0.026  0.528  0.277  0.830
 
band   7 # energy   13.27373079 # occ.  0.00000000
 
ion      s      p      d    tot
  1  0.264  0.321  0.177  0.762
 
band   8 # energy   16.18154508 # occ.  0.00000000
 
ion      s      p      d    tot
  1  0.302  0.156  0.318  0.776
 
band   9 # energy   20.25586652 # occ.  0.00000000
 
ion      s      p      d    tot
  1  0.026  0.482  0.161  0.669
 

 k-point   25 :   -0.18750000 0.43750000 0.06250000     weight = 0.02343750

band   1 # energy    0.59383639 # occ.  2.00000000
 
ion      s      p      d    tot
  1  0.086  0.040  0.794  0.920
 
band   2 # energy    1.36946898 # occ.  2.00000000
 
ion      s      p      d    tot
  1  0.004  0.050  0.853  0.907
 
band   3 # energy    2.45923880 # occ.  2.00000000
 
ion      s      p      d    tot
  1  0.000  0.152  0.758  0.911
 
band   4 # energy    3.00777354 # occ.  2.00000000
 
ion      s      p      d    tot
  1  0.000  0.012  0.942  0.954
 
band   5 # energy    4.66914877 # occ.  2.06879270
 
ion      s      p      d    tot
  1  0.001  0.001  0.972  0.974
 
band   6 # energy    9.77964371 # occ.  0.00000000
 
ion      s      p      d    tot
  1  0.053  0.441  0.315  0.809
 
band   7 # energy   12.52507541 # occ.  0.00000000
 
ion      s      p      d    tot
  1  0.403  0.138  0.316  0.857
 
band   8 # energy   19.45446083 # occ.  0.00000000
 
ion      s      p      d    tot
  1  0.102  0.311  0.252  0.665
 
band   9 # energy   22.51075612 # occ.  0.00000000
 
ion      s      p      d    tot
  1  0.047  0.348  0.204  0.598
 

 k-point   26 :   -0.06250000 0.43750000 0.06250000     weight = 0.02343750

band   1 # energy   -0.04397569 # occ.  2.00000000
 
ion      s      p      d    tot
  1  0.161  0.020  0.728  0.909
 
band   2 # energy    1.88188159 # occ.  2.00000000
 
ion      s      p      d    tot
  1  0.000  0.006  0.938  0.945
 
band   3 # energy    2.33318518 # occ.  2.00000000
 
ion      s      p      d    tot
  1  0.000  0.004  0.953  0.957
 
band   4 # energy    3.46989079 # occ.  2.00000000
 
ion      s      p      d    tot
  1  0.022  0.196  0.671  0.889
 
band   5 # energy    4.76545735 # occ.  1.99532595
 
ion      s      p      d    tot
  1  0.000  0.006  0.969  0.976
 
band   6 # energy    6.89972988 # occ.  0.00000000
 
ion      s      p      d    tot
  1  0.069  0.367  0.398  0.834
 
band   7 # energy   13.09106350 # occ.  0.00000000
 
ion      s      p      d    tot
  1  0.398  0.120  0.339  0.858
 
band   8 # energy   22.37565321 # occ.  0.00000000
 
ion      s      p      d    tot
  1  0.001  0.068  0.126  0.195
 
band   9 # energy   24.64516625 # occ.  0.00000000
 
ion      s      p      d    tot
  1  0.042  0.449  0.099  0.590
 
