<?xml version="1.0" encoding="ISO-8859-1"?>
<modeling>
 <generator>
  <i name="program" type="string">vasp </i>
  <i name="version" type="string">5.2.12  </i>
  <i name="subversion" type="string">11Nov11 complex                                                      serial </i>
  <i name="platform" type="string">LinuxIFC </i>
  <i name="date" type="string">2012 07 13 </i>
  <i name="time" type="string">09:09:35 </i>
 </generator>
 <incar>
  <i type="string" name="PREC">normal</i>
  <i name="ENCUT">    300.00000000</i>
  <v name="RWIGS">      1.50000000</v>
  <i type="logical" name="LREAL"> F  </i>
 </incar>
 <kpoints>
  <generation param="Monkhorst-Pack">
   <v type="int" name="divisions">       8        8        8 </v>
   <v name="usershift">      0.00000000       0.00000000       0.00000000 </v>
   <v name="genvec1">      0.12500000       0.00000000       0.00000000 </v>
   <v name="genvec2">      0.00000000       0.12500000       0.00000000 </v>
   <v name="genvec3">      0.00000000       0.00000000       0.12500000 </v>
   <v name="shift">      0.50000000       0.50000000       0.50000000 </v>
  </generation>
  <varray name="kpointlist" >
   <v>       0.06250000       0.06250000       0.06250000 </v>
   <v>       0.18750000       0.06250000       0.06250000 </v>
   <v>       0.31250000       0.06250000       0.06250000 </v>
   <v>       0.43750000       0.06250000       0.06250000 </v>
   <v>      -0.43750000       0.06250000       0.06250000 </v>
   <v>      -0.31250000       0.06250000       0.06250000 </v>
   <v>      -0.18750000       0.06250000       0.06250000 </v>
   <v>      -0.06250000       0.06250000       0.06250000 </v>
   <v>       0.18750000       0.18750000       0.06250000 </v>
   <v>       0.31250000       0.18750000       0.06250000 </v>
   <v>       0.43750000       0.18750000       0.06250000 </v>
   <v>      -0.43750000       0.18750000       0.06250000 </v>
   <v>      -0.31250000       0.18750000       0.06250000 </v>
   <v>      -0.18750000       0.18750000       0.06250000 </v>
   <v>      -0.06250000       0.18750000       0.06250000 </v>
   <v>       0.31250000       0.31250000       0.06250000 </v>
   <v>       0.43750000       0.31250000       0.06250000 </v>
   <v>      -0.43750000       0.31250000       0.06250000 </v>
   <v>      -0.31250000       0.31250000       0.06250000 </v>
   <v>      -0.18750000       0.31250000       0.06250000 </v>
   <v>      -0.06250000       0.31250000       0.06250000 </v>
   <v>       0.43750000       0.43750000       0.06250000 </v>
   <v>      -0.43750000       0.43750000       0.06250000 </v>
   <v>      -0.31250000       0.43750000       0.06250000 </v>
   <v>      -0.18750000       0.43750000       0.06250000 </v>
   <v>      -0.06250000       0.43750000       0.06250000 </v>
   <v>      -0.43750000      -0.43750000       0.06250000 </v>
   <v>      -0.31250000      -0.43750000       0.06250000 </v>
   <v>      -0.18750000      -0.43750000       0.06250000 </v>
   <v>      -0.31250000      -0.31250000       0.06250000 </v>
   <v>      -0.18750000      -0.31250000       0.06250000 </v>
   <v>      -0.18750000      -0.18750000       0.06250000 </v>
   <v>       0.18750000       0.18750000       0.18750000 </v>
   <v>       0.31250000       0.18750000       0.18750000 </v>
   <v>       0.43750000       0.18750000       0.18750000 </v>
   <v>      -0.43750000       0.18750000       0.18750000 </v>
   <v>      -0.31250000       0.18750000       0.18750000 </v>
   <v>      -0.18750000       0.18750000       0.18750000 </v>
   <v>       0.31250000       0.31250000       0.18750000 </v>
   <v>       0.43750000       0.31250000       0.18750000 </v>
   <v>      -0.43750000       0.31250000       0.18750000 </v>
   <v>      -0.31250000       0.31250000       0.18750000 </v>
   <v>      -0.18750000       0.31250000       0.18750000 </v>
   <v>       0.43750000       0.43750000       0.18750000 </v>
   <v>      -0.43750000       0.43750000       0.18750000 </v>
   <v>      -0.31250000       0.43750000       0.18750000 </v>
   <v>      -0.18750000       0.43750000       0.18750000 </v>
   <v>      -0.43750000      -0.43750000       0.18750000 </v>
   <v>      -0.31250000      -0.43750000       0.18750000 </v>
   <v>      -0.31250000      -0.31250000       0.18750000 </v>
   <v>       0.31250000       0.31250000       0.31250000 </v>
   <v>       0.43750000       0.31250000       0.31250000 </v>
   <v>      -0.43750000       0.31250000       0.31250000 </v>
   <v>      -0.31250000       0.31250000       0.31250000 </v>
   <v>       0.43750000       0.43750000       0.31250000 </v>
   <v>      -0.43750000       0.43750000       0.31250000 </v>
   <v>      -0.31250000       0.43750000       0.31250000 </v>
   <v>      -0.43750000      -0.43750000       0.31250000 </v>
   <v>       0.43750000       0.43750000       0.43750000 </v>
   <v>      -0.43750000       0.43750000       0.43750000 </v>
  </varray>
  <varray name="weights" >
   <v>       0.00390625 </v>
   <v>       0.01171875 </v>
   <v>       0.01171875 </v>
   <v>       0.01171875 </v>
   <v>       0.01171875 </v>
   <v>       0.01171875 </v>
   <v>       0.01171875 </v>
   <v>       0.01171875 </v>
   <v>       0.01171875 </v>
   <v>       0.02343750 </v>
   <v>       0.02343750 </v>
   <v>       0.02343750 </v>
   <v>       0.02343750 </v>
   <v>       0.02343750 </v>
   <v>       0.02343750 </v>
   <v>       0.01171875 </v>
   <v>       0.02343750 </v>
   <v>       0.02343750 </v>
   <v>       0.02343750 </v>
   <v>       0.02343750 </v>
   <v>       0.02343750 </v>
   <v>       0.01171875 </v>
   <v>       0.02343750 </v>
   <v>       0.02343750 </v>
   <v>       0.02343750 </v>
   <v>       0.02343750 </v>
   <v>       0.01171875 </v>
   <v>       0.02343750 </v>
   <v>       0.02343750 </v>
   <v>       0.01171875 </v>
   <v>       0.02343750 </v>
   <v>       0.01171875 </v>
   <v>       0.00390625 </v>
   <v>       0.01171875 </v>
   <v>       0.01171875 </v>
   <v>       0.01171875 </v>
   <v>       0.01171875 </v>
   <v>       0.01171875 </v>
   <v>       0.01171875 </v>
   <v>       0.02343750 </v>
   <v>       0.02343750 </v>
   <v>       0.02343750 </v>
   <v>       0.02343750 </v>
   <v>       0.01171875 </v>
   <v>       0.02343750 </v>
   <v>       0.02343750 </v>
   <v>       0.02343750 </v>
   <v>       0.01171875 </v>
   <v>       0.02343750 </v>
   <v>       0.01171875 </v>
   <v>       0.00390625 </v>
   <v>       0.01171875 </v>
   <v>       0.01171875 </v>
   <v>       0.01171875 </v>
   <v>       0.01171875 </v>
   <v>       0.02343750 </v>
   <v>       0.02343750 </v>
   <v>       0.01171875 </v>
   <v>       0.00390625 </v>
   <v>       0.01171875 </v>
  </varray>
 </kpoints>
 <parameters>
  <separator name="general" >
   <i type="string" name="SYSTEM">unknown system</i>
   <i type="logical" name="LCOMPAT"> F  </i>
  </separator>
  <separator name="electronic" >
   <i type="string" name="PREC">normal</i>
   <i name="ENMAX">    300.00000000</i>
   <i name="ENAUG">    416.23000000</i>
   <i name="EDIFF">      0.00010000</i>
   <i type="int" name="IALGO">    38</i>
   <i type="int" name="IWAVPR">     0</i>
   <i type="int" name="NBANDS">     9</i>
   <i name="NELECT">     10.00000000</i>
   <i type="int" name="TURBO">     0</i>
   <i type="int" name="IRESTART">     0</i>
   <i type="int" name="NREBOOT">     0</i>
   <i type="int" name="NMIN">     0</i>
   <i name="EREF">      0.00000000</i>
   <separator name="electronic smearing" >
    <i type="int" name="ISMEAR">     1</i>
    <i name="SIGMA">      0.20000000</i>
    <i name="KSPACING">      0.50000000</i>
    <i type="logical" name="KGAMMA"> T  </i>
   </separator>
   <separator name="electronic projectors" >
    <i type="logical" name="LREAL"> F  </i>
    <v name="ROPT">      0.00000000</v>
    <i type="int" name="LMAXPAW">  -100</i>
    <i type="int" name="LMAXMIX">     2</i>
    <i type="logical" name="NLSPLINE"> F  </i>
   </separator>
   <separator name="electronic startup" >
    <i type="int" name="ISTART">     0</i>
    <i type="int" name="ICHARG">     2</i>
    <i type="int" name="INIWAV">     1</i>
   </separator>
   <separator name="electronic spin" >
    <i type="int" name="ISPIN">     1</i>
    <i type="logical" name="LNONCOLLINEAR"> F  </i>
    <v name="MAGMOM">      1.00000000</v>
    <i name="NUPDOWN">     -1.00000000</i>
    <i type="logical" name="LSORBIT"> F  </i>
    <v name="SAXIS">      0.00000000      0.00000000      1.00000000</v>
    <i type="logical" name="LSPIRAL"> F  </i>
    <v name="QSPIRAL">      0.00000000      0.00000000      0.00000000</v>
    <i type="logical" name="LZEROZ"> F  </i>
   </separator>
   <separator name="electronic exchange-correlation" >
    <i type="logical" name="LASPH"> F  </i>
    <i type="logical" name="LMETAGGA"> F  </i>
   </separator>
   <separator name="electronic convergence" >
    <i type="int" name="NELM">    60</i>
    <i type="int" name="NELMDL">    -5</i>
    <i type="int" name="NELMIN">     2</i>
    <i name="ENINI">    300.00000000</i>
    <separator name="electronic convergence detail" >
     <i type="logical" name="LDIAG"> T  </i>
     <i type="logical" name="LSUBROT"> T  </i>
     <i name="WEIMIN">      0.00000000</i>
     <i name="EBREAK">      0.00000278</i>
     <i name="DEPER">      0.30000000</i>
     <i type="int" name="NRMM">     4</i>
     <i name="TIME">      0.40000000</i>
    </separator>
   </separator>
   <separator name="electronic mixer" >
    <i name="AMIX">      0.40000000</i>
    <i name="BMIX">      1.00000000</i>
    <i name="AMIN">      0.10000000</i>
    <i name="AMIX_MAG">      1.60000000</i>
    <i name="BMIX_MAG">      1.00000000</i>
    <separator name="electronic mixer details" >
     <i type="int" name="IMIX">     4</i>
     <i type="int" name="MAXMIX">   -45</i>
     <i name="WC">    100.00000000</i>
     <i type="int" name="INIMIX">     1</i>
     <i type="int" name="MIXPRE">     1</i>
     <i type="int" name="MREMOVE">     5</i>
    </separator>
   </separator>
   <separator name="electronic dipolcorrection" >
    <i type="logical" name="LDIPOL"> F  </i>
    <i type="logical" name="LMONO"> F  </i>
    <i type="int" name="IDIPOL">     0</i>
    <i name="EPSILON">      1.00000000</i>
    <v name="DIPOL">   -100.00000000   -100.00000000   -100.00000000</v>
    <i name="EFIELD">      0.00000000</i>
   </separator>
  </separator>
  <separator name="grids" >
   <i type="int" name="NGX">    12</i>
   <i type="int" name="NGY">    12</i>
   <i type="int" name="NGZ">    12</i>
   <i type="int" name="NGXF">    24</i>
   <i type="int" name="NGYF">    24</i>
   <i type="int" name="NGZF">    24</i>
   <i type="logical" name="ADDGRID"> F  </i>
  </separator>
  <separator name="ionic" >
   <i type="int" name="NSW">     0</i>
   <i type="int" name="IBRION">    -1</i>
   <i type="int" name="ISIF">     2</i>
   <i name="PSTRESS">      0.00000000</i>
   <i name="EDIFFG">      0.00100000</i>
   <i type="int" name="NFREE">     0</i>
   <i name="POTIM">      0.50000000</i>
   <i name="SMASS">     -3.00000000</i>
   <i name="SCALEE">      1.00000000</i>
  </separator>
  <separator name="ionic md" >
   <i name="TEBEG">      0.00010000</i>
   <i name="TEEND">      0.00010000</i>
   <i type="int" name="NBLOCK">     1</i>
   <i type="int" name="KBLOCK">     1</i>
   <i type="int" name="NPACO">   256</i>
   <i name="APACO">     16.00000000</i>
  </separator>
  <separator name="symmetry" >
   <i type="int" name="ISYM">     2</i>
   <i name="SYMPREC">      0.00001000</i>
  </separator>
  <separator name="dos" >
   <i type="logical" name="LORBIT"> F  </i>
   <v name="RWIGS">      1.50000000</v>
   <i type="int" name="NEDOS">   301</i>
   <i name="EMIN">     10.00000000</i>
   <i name="EMAX">    -10.00000000</i>
   <i name="EFERMI">      0.00000000</i>
  </separator>
  <separator name="writing" >
   <i type="int" name="NWRITE">     2</i>
   <i type="logical" name="LWAVE"> T  </i>
   <i type="logical" name="LCHARG"> T  </i>
   <i type="logical" name="LPARD"> F  </i>
   <i type="logical" name="LVTOT"> F  </i>
   <i type="logical" name="LVHAR"> F  </i>
   <i type="logical" name="LELF"> F  </i>
   <i type="logical" name="LOPTICS"> F  </i>
   <v name="STM">      0.00000000      0.00000000      0.00000000      0.00000000      0.00000000      0.00000000      0.00000000</v>
  </separator>
  <separator name="performance" >
   <i type="int" name="NPAR">     1</i>
   <i type="int" name="NSIM">     4</i>
   <i type="int" name="NBLK">    -1</i>
   <i type="logical" name="LPLANE"> T  </i>
   <i type="logical" name="LSCALAPACK"> F  </i>
   <i type="logical" name="LSCAAWARE"> F  </i>
   <i type="logical" name="LSCALU"> F  </i>
   <i type="logical" name="LASYNC"> F  </i>
   <i type="logical" name="LORBITALREAL"> F  </i>
  </separator>
  <separator name="miscellaneous" >
   <i type="int" name="IDIOT">     3</i>
   <i type="logical" name="LMUSIC"> F  </i>
   <v name="POMASS">    106.42000000</v>
   <v name="DARWINR">      0.00000000</v>
   <v name="DARWINV">      1.00000000</v>
   <i type="logical" name="LCORR"> T  </i>
  </separator>
  <i type="logical" name="GGA_COMPAT"> T  </i>
  <i type="logical" name="LBERRY"> F  </i>
  <i type="int" name="ICORELEVEL">     0</i>
  <i type="logical" name="LDAU"> F  </i>
  <i type="int" name="I_CONSTRAINED_M">     0</i>
  <separator name="electronic exchange-correlation" >
   <i type="string" name="GGA">--</i>
   <i type="int" name="VOSKOWN">     0</i>
   <i type="logical" name="LHFCALC"> F  </i>
   <i type="string" name="PRECFOCK"></i>
   <i type="logical" name="LHFONE"> F  </i>
   <i type="logical" name="LRHFCALC"> F  </i>
   <i type="logical" name="LTHOMAS"> F  </i>
   <i type="logical" name="LMODELHF"> F  </i>
   <i name="ENCUT4O">     -1.00000000</i>
   <i type="int" name="EXXOEP">     0</i>
   <i type="int" name="FOURORBIT">     0</i>
   <i name="AEXX">      0.00000000</i>
   <i name="HFALPHA">      0.00000000</i>
   <i name="ALDAX">      1.00000000</i>
   <i name="AGGAX">      1.00000000</i>
   <i name="ALDAC">      1.00000000</i>
   <i name="AGGAC">      1.00000000</i>
   <i type="int" name="NKREDX">     1</i>
   <i type="int" name="NKREDY">     1</i>
   <i type="int" name="NKREDZ">     1</i>
   <i type="logical" name="SHIFTRED"> F  </i>
   <i type="logical" name="ODDONLY"> F  </i>
   <i type="logical" name="EVENONLY"> F  </i>
   <i type="int" name="LMAXFOCK">     0</i>
   <i type="int" name="NMAXFOCKAE">     0</i>
   <i type="logical" name="LFOCKAEDFT"> F  </i>
   <i name="HFSCREEN">      0.00000000</i>
   <i name="HFSCREENC">      0.00000000</i>
  </separator>
  <separator name="vdW DFT" >
   <i type="logical" name="LUSE_VDW"> F  </i>
   <i name="Zab_VDW">     -0.84910000</i>
   <i name="PARAM1">      0.12340000</i>
   <i name="PARAM2">      1.00000000</i>
   <i name="PARAM3">      0.00000000</i>
  </separator>
  <separator name="model GW" >
   <i type="int" name="MODEL_GW">     0</i>
   <i name="MODEL_EPS0">      8.89785000</i>
   <i name="MODEL_ALPHA">      1.00000000</i>
  </separator>
  <separator name="linear response parameters" >
   <i type="logical" name="LEPSILON"> F  </i>
   <i type="logical" name="LRPA"> F  </i>
   <i type="logical" name="LNABLA"> F  </i>
   <i type="logical" name="LVEL"> F  </i>
   <i type="int" name="KINTER">     0</i>
   <i name="CSHIFT">      0.10000000</i>
   <i name="OMEGAMAX">     -1.00000000</i>
  </separator>
  <separator name="orbital magnetization" >
   <i type="logical" name="NUCIND"> F  </i>
   <v name="MAGPOS">      0.00000000      0.00000000      0.00000000</v>
   <i type="logical" name="LNICSALL"> T  </i>
   <i type="logical" name="ORBITALMAG"> F  </i>
   <i type="logical" name="LMAGBLOCH"> F  </i>
   <i type="logical" name="LCHIMAG"> F  </i>
   <i type="logical" name="LGAUGE"> T  </i>
   <i type="int" name="MAGATOM">     0</i>
   <v name="MAGDIPOL">      0.00000000      0.00000000      0.00000000</v>
   <v name="AVECCONST">      0.00000000      0.00000000      0.00000000</v>
  </separator>
  <separator name="response functions" >
   <i type="logical" name="LADDER"> F  </i>
   <i type="logical" name="LHARTREE"> T  </i>
   <i type="int" name="IBSE">     0</i>
   <i type="logical" name="LTCTE"> F  </i>
   <i type="logical" name="LTETE"> F  </i>
   <i type="logical" name="LFXCEPS"> F  </i>
   <i type="logical" name="L2ORDER"> F  </i>
   <i type="logical" name="LUSEW"> F  </i>
   <i name="ENCUTGW">     -2.00000000</i>
   <i name="ENCUTGWSOFT">     -2.00000000</i>
   <i name="ENCUTLF">     -1.00000000</i>
   <i type="int" name="LMAXMP2">    -1</i>
   <i name="SCISSOR">      0.00000000</i>
   <i type="int" name="NOMEGA">     0</i>
   <i type="int" name="NOMEGAR">     0</i>
   <i type="int" name="NBANDSGW">    -1</i>
   <i type="int" name="NBANDSO">    -1</i>
   <i type="int" name="NBANDSV">    -1</i>
   <i name="OPTEMAX">      0.00000000</i>
   <i type="int" name="NELM">     1</i>
   <i type="int" name="DIM">     3</i>
   <i type="int" name="ANTIRES">     0</i>
   <i name="OMEGAMAX">    -30.00000000</i>
   <i name="OMEGATL">   -200.00000000</i>
   <i type="int" name="OMEGAGRID">     0</i>
   <i name="CSHIFT">     -0.10000000</i>
   <i type="logical" name="SELFENERGY"> F  </i>
   <i type="logical" name="LSPECTRAL"> F  </i>
   <i type="logical" name="ODDONLYGW"> F  </i>
   <i type="logical" name="EVENONLYGW"> F  </i>
   <i type="int" name="NKREDLFX">     1</i>
   <i type="int" name="NKREDLFY">     1</i>
   <i type="int" name="NKREDLFZ">     1</i>
   <i type="int" name="MAXMEM">  1800</i>
   <i type="int" name="TELESCOPE">     0</i>
  </separator>
 </parameters>
 <atominfo>
  <atoms>       1 </atoms>
  <types>       1 </types>
  <array name="atoms" >
   <dimension dim="1">ion</dimension>
   <field type="string">element</field>
   <field type="int">atomtype</field>
   <set>
    <rc><c>Pd</c><c>   1</c></rc>
   </set>
  </array>
  <array name="atomtypes" >
   <dimension dim="1">type</dimension>
   <field type="int">atomspertype</field>
   <field type="string">element</field>
   <field>mass</field>
   <field>valence</field>
   <field type="string">pseudopotential</field>
   <set>
    <rc><c>   1</c><c>Pd</c><c>    106.42000000</c><c>     10.00000000</c><c>  PAW_PBE Pd 05Jan2001                  </c></rc>
   </set>
  </array>
 </atominfo>
 <structure name="initialpos" >
  <crystal>
   <varray name="basis" >
    <v>       0.00000000       1.95000000       1.95000000 </v>
    <v>       1.95000000       0.00000000       1.95000000 </v>
    <v>       1.95000000       1.95000000       0.00000000 </v>
   </varray>
   <i name="volume">     14.82975000 </i>
   <varray name="rec_basis" >
    <v>      -0.25641026       0.25641026       0.25641026 </v>
    <v>       0.25641026      -0.25641026       0.25641026 </v>
    <v>       0.25641026       0.25641026      -0.25641026 </v>
   </varray>
  </crystal>
  <varray name="positions" >
   <v>       0.00000000       0.00000000       0.00000000 </v>
  </varray>
 </structure>
 <calculation>
  <scstep>
   <time name="dav">    0.38    0.38</time>
   <time name="total">    0.41    0.41</time>
   <energy>
    <i name="alphaZ">     91.80708373 </i>
    <i name="ewald">   -846.42356471 </i>
    <i name="hartreedc">   -123.56670599 </i>
    <i name="XCdc">    -29.13343588 </i>
    <i name="pawpsdc">    783.58879337 </i>
    <i name="pawaedc">   -721.36652728 </i>
    <i name="eentropy">     -0.00068605 </i>
    <i name="bandstr">     63.91703898 </i>
    <i name="atom">    809.70282448 </i>
    <i name="e_fr_energy">     28.52482065 </i>
    <i name="e_wo_entrp">     28.52550669 </i>
    <i name="e_0_energy">     28.52504933 </i>
   </energy>
  </scstep>
  <scstep>
   <time name="dav">    0.33    0.33</time>
   <time name="total">    0.34    0.35</time>
   <energy>
    <i name="e_fr_energy">     -4.92894229 </i>
    <i name="e_wo_entrp">     -4.91997019 </i>
    <i name="e_0_energy">     -4.92595159 </i>
   </energy>
  </scstep>
  <scstep>
   <time name="dav">    0.40    0.40</time>
   <time name="total">    0.40    0.43</time>
   <energy>
    <i name="e_fr_energy">     -5.41241684 </i>
    <i name="e_wo_entrp">     -5.40384395 </i>
    <i name="e_0_energy">     -5.40955921 </i>
   </energy>
  </scstep>
  <scstep>
   <time name="dav">    0.38    0.38</time>
   <time name="total">    0.39    0.40</time>
   <energy>
    <i name="e_fr_energy">     -5.41840553 </i>
    <i name="e_wo_entrp">     -5.40985816 </i>
    <i name="e_0_energy">     -5.41555640 </i>
   </energy>
  </scstep>
  <scstep>
   <time name="dav">    0.47    0.47</time>
   <time name="total">    0.51    0.52</time>
   <energy>
    <i name="e_fr_energy">     -5.41857259 </i>
    <i name="e_wo_entrp">     -5.41002665 </i>
    <i name="e_0_energy">     -5.41572394 </i>
   </energy>
  </scstep>
  <scstep>
   <time name="dav">    0.34    0.34</time>
   <time name="total">    0.40    0.44</time>
   <energy>
    <i name="e_fr_energy">     -5.17635324 </i>
    <i name="e_wo_entrp">     -5.17134460 </i>
    <i name="e_0_energy">     -5.17468369 </i>
   </energy>
  </scstep>
  <scstep>
   <time name="dav">    0.49    0.49</time>
   <time name="total">    0.55    0.56</time>
   <energy>
    <i name="e_fr_energy">     -5.16884117 </i>
    <i name="e_wo_entrp">     -5.16381607 </i>
    <i name="e_0_energy">     -5.16716614 </i>
   </energy>
  </scstep>
  <scstep>
   <time name="dav">    0.34    0.34</time>
   <time name="total">    0.40    0.41</time>
   <energy>
    <i name="e_fr_energy">     -5.16593968 </i>
    <i name="e_wo_entrp">     -5.16093415 </i>
    <i name="e_0_energy">     -5.16427117 </i>
   </energy>
  </scstep>
  <scstep>
   <time name="dav">    0.29    0.29</time>
   <time name="total">    0.32    0.33</time>
   <energy>
    <i name="alphaZ">     91.80708373 </i>
    <i name="ewald">   -846.42356471 </i>
    <i name="hartreedc">   -114.39109475 </i>
    <i name="XCdc">    -29.38926851 </i>
    <i name="pawpsdc">    911.24883890 </i>
    <i name="pawaedc">   -851.01754218 </i>
    <i name="eentropy">     -0.00500625 </i>
    <i name="bandstr">     23.30178262 </i>
    <i name="atom">    809.70282448 </i>
    <i name="e_fr_energy">     -5.16594666 </i>
    <i name="e_wo_entrp">     -5.16094042 </i>
    <i name="e_0_energy">     -5.16427791 </i>
   </energy>
  </scstep>
  <parameters_embedded>
   <separator name="dft+d2" >
    <i type="logical" name="LVDW"> F  </i>
   </separator>
  </parameters_embedded>
  <structure>
   <crystal>
    <varray name="basis" >
     <v>       0.00000000       1.95000000       1.95000000 </v>
     <v>       1.95000000       0.00000000       1.95000000 </v>
     <v>       1.95000000       1.95000000       0.00000000 </v>
    </varray>
    <i name="volume">     14.82975000 </i>
    <varray name="rec_basis" >
     <v>      -0.25641026       0.25641026       0.25641026 </v>
     <v>       0.25641026      -0.25641026       0.25641026 </v>
     <v>       0.25641026       0.25641026      -0.25641026 </v>
    </varray>
   </crystal>
   <varray name="positions" >
    <v>       0.00000000       0.00000000       0.00000000 </v>
   </varray>
  </structure>
  <varray name="forces" >
   <v>       0.00000000       0.00000000       0.00000000 </v>
  </varray>
  <varray name="stress" >
   <v>      75.42701810       0.00000000       0.00000000 </v>
   <v>       0.00000000      75.42701810       0.00000000 </v>
   <v>       0.00000000       0.00000000      75.42701810 </v>
  </varray>
  <energy>
   <i name="e_fr_energy">     -5.16594666 </i>
   <i name="e_wo_entrp">     -5.16427791 </i>
   <i name="e_0_energy">     -0.00500625 </i>
  </energy>
  <time name="totalsc">    4.05    4.76</time>
  <eigenvalues>
   <array>
    <dimension dim="1">band</dimension>
    <dimension dim="2">kpoint</dimension>
    <dimension dim="3">spin</dimension>
    <field>eigene</field>
    <field>occ</field>
    <set>
     <set comment="spin 1">
      <set comment="kpoint 1">
       <r>   -2.0679    1.0000 </r>
       <r>    2.0553    1.0000 </r>
       <r>    2.1540    1.0000 </r>
       <r>    2.1540    1.0000 </r>
       <r>    3.6834    1.0000 </r>
       <r>    3.6834    1.0000 </r>
       <r>   23.2785    0.0000 </r>
       <r>   26.6959    0.0000 </r>
       <r>   27.5671    0.0000 </r>
      </set>
      <set comment="kpoint 2">
       <r>   -1.3656    1.0000 </r>
       <r>    1.8209    1.0000 </r>
       <r>    2.3668    1.0000 </r>
       <r>    2.3909    1.0000 </r>
       <r>    3.4631    1.0000 </r>
       <r>    3.8006    1.0000 </r>
       <r>   23.1944    0.0000 </r>
       <r>   24.2435    0.0000 </r>
       <r>   27.2362    0.0000 </r>
      </set>
      <set comment="kpoint 3">
       <r>   -0.2830    1.0000 </r>
       <r>    2.0493    1.0000 </r>
       <r>    2.4042    1.0000 </r>
       <r>    2.4457    1.0000 </r>
       <r>    3.7043    1.0000 </r>
       <r>    4.3523    1.0002 </r>
       <r>   18.8321    0.0000 </r>
       <r>   23.6473    0.0000 </r>
       <r>   27.0129    0.0000 </r>
      </set>
      <set comment="kpoint 4">
       <r>   -0.1813    1.0000 </r>
       <r>    2.0938    1.0000 </r>
       <r>    2.2105    1.0000 </r>
       <r>    3.7677    1.0000 </r>
       <r>    4.4790    1.0031 </r>
       <r>    5.5657    0.0000 </r>
       <r>   14.2429    0.0000 </r>
       <r>   22.6663    0.0000 </r>
       <r>   25.8910    0.0000 </r>
      </set>
      <set comment="kpoint 5">
       <r>   -0.2499    1.0000 </r>
       <r>    1.9837    1.0000 </r>
       <r>    2.1467    1.0000 </r>
       <r>    4.2388    1.0000 </r>
       <r>    4.9042    0.6155 </r>
       <r>    6.5860    0.0000 </r>
       <r>   12.2831    0.0000 </r>
       <r>   22.3643    0.0000 </r>
       <r>   26.0494    0.0000 </r>
      </set>
      <set comment="kpoint 6">
       <r>   -0.1532    1.0000 </r>
       <r>    2.1481    1.0000 </r>
       <r>    2.3180    1.0000 </r>
       <r>    3.0991    1.0000 </r>
       <r>    4.6072    1.0220 </r>
       <r>    4.7918    0.9598 </r>
       <r>   15.6718    0.0000 </r>
       <r>   23.0627    0.0000 </r>
       <r>   26.3612    0.0000 </r>
      </set>
      <set comment="kpoint 7">
       <r>   -0.5744    1.0000 </r>
       <r>    1.7901    1.0000 </r>
       <r>    2.4376    1.0000 </r>
       <r>    2.4939    1.0000 </r>
       <r>    3.6359    1.0000 </r>
       <r>    4.0022    1.0000 </r>
       <r>   20.4275    0.0000 </r>
       <r>   24.1292    0.0000 </r>
       <r>   27.0559    0.0000 </r>
      </set>
      <set comment="kpoint 8">
       <r>   -1.7035    1.0000 </r>
       <r>    1.8800    1.0000 </r>
       <r>    2.3046    1.0000 </r>
       <r>    2.3102    1.0000 </r>
       <r>    3.4927    1.0000 </r>
       <r>    3.7767    1.0000 </r>
       <r>   23.5162    0.0000 </r>
       <r>   25.3937    0.0000 </r>
       <r>   27.3300    0.0000 </r>
      </set>
      <set comment="kpoint 9">
       <r>   -1.0337    1.0000 </r>
       <r>    1.5434    1.0000 </r>
       <r>    2.5870    1.0000 </r>
       <r>    2.6149    1.0000 </r>
       <r>    3.2400    1.0000 </r>
       <r>    3.9518    1.0000 </r>
       <r>   23.5808    0.0000 </r>
       <r>   24.4735    0.0000 </r>
       <r>   26.0926    0.0000 </r>
      </set>
      <set comment="kpoint 10">
       <r>   -0.0242    1.0000 </r>
       <r>    1.2468    1.0000 </r>
       <r>    2.3856    1.0000 </r>
       <r>    2.9913    1.0000 </r>
       <r>    3.6160    1.0000 </r>
       <r>    4.4783    1.0031 </r>
       <r>   20.8711    0.0000 </r>
       <r>   22.8967    0.0000 </r>
       <r>   25.4973    0.0000 </r>
      </set>
      <set comment="kpoint 11">
       <r>    0.3042    1.0000 </r>
       <r>    1.7672    1.0000 </r>
       <r>    2.1347    1.0000 </r>
       <r>    2.8469    1.0000 </r>
       <r>    4.5723    1.0145 </r>
       <r>    6.1287    0.0000 </r>
       <r>   16.0185    0.0000 </r>
       <r>   22.2530    0.0000 </r>
       <r>   23.6056    0.0000 </r>
      </set>
      <set comment="kpoint 12">
       <r>    0.2358    1.0000 </r>
       <r>    1.5997    1.0000 </r>
       <r>    2.6167    1.0000 </r>
       <r>    2.9710    1.0000 </r>
       <r>    4.8372    0.8546 </r>
       <r>    8.5436    0.0000 </r>
       <r>   12.3240    0.0000 </r>
       <r>   21.6577    0.0000 </r>
       <r>   23.0562    0.0000 </r>
      </set>
      <set comment="kpoint 13">
       <r>    0.3558    1.0000 </r>
       <r>    1.7464    1.0000 </r>
       <r>    2.4856    1.0000 </r>
       <r>    2.7694    1.0000 </r>
       <r>    4.3659    1.0002 </r>
       <r>    7.1460    0.0000 </r>
       <r>   14.6011    0.0000 </r>
       <r>   21.1545    0.0000 </r>
       <r>   23.9405    0.0000 </r>
      </set>
      <set comment="kpoint 14">
       <r>    0.3335    1.0000 </r>
       <r>    1.4484    1.0000 </r>
       <r>    2.1862    1.0000 </r>
       <r>    2.9453    1.0000 </r>
       <r>    3.4605    1.0000 </r>
       <r>    5.1960   -0.0342 </r>
       <r>   19.2798    0.0000 </r>
       <r>   21.4764    0.0000 </r>
       <r>   25.7993    0.0000 </r>
      </set>
      <set comment="kpoint 15">
       <r>   -0.7480    1.0000 </r>
       <r>    1.5853    1.0000 </r>
       <r>    2.4887    1.0000 </r>
       <r>    2.6138    1.0000 </r>
       <r>    3.3397    1.0000 </r>
       <r>    4.0609    1.0000 </r>
       <r>   22.1237    0.0000 </r>
       <r>   23.6963    0.0000 </r>
       <r>   26.7636    0.0000 </r>
      </set>
      <set comment="kpoint 16">
       <r>    0.1785    1.0000 </r>
       <r>    0.7062    1.0000 </r>
       <r>    3.0440    1.0000 </r>
       <r>    3.5737    1.0000 </r>
       <r>    4.1686    1.0000 </r>
       <r>    4.4511    1.0018 </r>
       <r>   21.2225    0.0000 </r>
       <r>   22.3791    0.0000 </r>
       <r>   22.9255    0.0000 </r>
      </set>
      <set comment="kpoint 17">
       <r>    0.2851    1.0000 </r>
       <r>    0.5537    1.0000 </r>
       <r>    2.9464    1.0000 </r>
       <r>    3.9895    1.0000 </r>
       <r>    4.6473    1.0309 </r>
       <r>    6.3957    0.0000 </r>
       <r>   18.2771    0.0000 </r>
       <r>   20.2576    0.0000 </r>
       <r>   20.5953    0.0000 </r>
      </set>
      <set comment="kpoint 18">
       <r>    0.3878    1.0000 </r>
       <r>    0.9759    1.0000 </r>
       <r>    2.5594    1.0000 </r>
       <r>    3.6245    1.0000 </r>
       <r>    4.9147    0.5720 </r>
       <r>    9.7707    0.0000 </r>
       <r>   13.8398    0.0000 </r>
       <r>   18.4398    0.0000 </r>
       <r>   20.6725    0.0000 </r>
      </set>
      <set comment="kpoint 19">
       <r>    0.8316    1.0000 </r>
       <r>    1.3972    1.0000 </r>
       <r>    1.9949    1.0000 </r>
       <r>    3.3674    1.0000 </r>
       <r>    4.4120    1.0007 </r>
       <r>    9.9996    0.0000 </r>
       <r>   14.1914    0.0000 </r>
       <r>   16.9766    0.0000 </r>
       <r>   22.3612    0.0000 </r>
      </set>
      <set comment="kpoint 20">
       <r>    0.9175    1.0000 </r>
       <r>    1.5899    1.0000 </r>
       <r>    1.7862    1.0000 </r>
       <r>    3.1332    1.0000 </r>
       <r>    3.8853    1.0000 </r>
       <r>    7.2506    0.0000 </r>
       <r>   16.6069    0.0000 </r>
       <r>   18.8960    0.0000 </r>
       <r>   24.0663    0.0000 </r>
      </set>
      <set comment="kpoint 21">
       <r>    0.0406    1.0000 </r>
       <r>    2.1054    1.0000 </r>
       <r>    2.2178    1.0000 </r>
       <r>    2.5671    1.0000 </r>
       <r>    4.0495    1.0000 </r>
       <r>    5.0196    0.1650 </r>
       <r>   17.3704    0.0000 </r>
       <r>   23.0239    0.0000 </r>
       <r>   25.5409    0.0000 </r>
      </set>
      <set comment="kpoint 22">
       <r>   -0.1862    1.0000 </r>
       <r>    0.0665    1.0000 </r>
       <r>    4.4804    1.0032 </r>
       <r>    4.5563    1.0116 </r>
       <r>    4.9635    0.3675 </r>
       <r>    7.0099    0.0000 </r>
       <r>   17.8177    0.0000 </r>
       <r>   18.5827    0.0000 </r>
       <r>   19.3593    0.0000 </r>
      </set>
      <set comment="kpoint 23">
       <r>   -0.1361    1.0000 </r>
       <r>    0.1505    1.0000 </r>
       <r>    3.9740    1.0000 </r>
       <r>    4.5247    1.0071 </r>
       <r>    5.1306   -0.0245 </r>
       <r>    9.5478    0.0000 </r>
       <r>   15.8351    0.0000 </r>
       <r>   16.7533    0.0000 </r>
       <r>   18.5455    0.0000 </r>
      </set>
      <set comment="kpoint 24">
       <r>    0.3055    1.0000 </r>
       <r>    0.8357    1.0000 </r>
       <r>    2.7776    1.0000 </r>
       <r>    3.8928    1.0000 </r>
       <r>    4.8658    0.7629 </r>
       <r>   11.7040    0.0000 </r>
       <r>   13.2737    0.0000 </r>
       <r>   16.1815    0.0000 </r>
       <r>   20.2559    0.0000 </r>
      </set>
      <set comment="kpoint 25">
       <r>    0.5938    1.0000 </r>
       <r>    1.3695    1.0000 </r>
       <r>    2.4592    1.0000 </r>
       <r>    3.0078    1.0000 </r>
       <r>    4.6691    1.0344 </r>
       <r>    9.7796    0.0000 </r>
       <r>   12.5251    0.0000 </r>
       <r>   19.4545    0.0000 </r>
       <r>   22.5108    0.0000 </r>
      </set>
      <set comment="kpoint 26">
       <r>   -0.0440    1.0000 </r>
       <r>    1.8819    1.0000 </r>
       <r>    2.3332    1.0000 </r>
       <r>    3.4699    1.0000 </r>
       <r>    4.7655    0.9977 </r>
       <r>    6.8997    0.0000 </r>
       <r>   13.0911    0.0000 </r>
       <r>   22.3757    0.0000 </r>
       <r>   24.6452    0.0000 </r>
      </set>
      <set comment="kpoint 27">
       <r>   -0.3567    1.0000 </r>
       <r>   -0.0757    1.0000 </r>
       <r>    4.7724    0.9892 </r>
       <r>    4.8606    0.7810 </r>
       <r>    5.1515   -0.0326 </r>
       <r>    8.4312    0.0000 </r>
       <r>   15.9048    0.0000 </r>
       <r>   17.8861    0.0000 </r>
       <r>   18.6439    0.0000 </r>
      </set>
      <set comment="kpoint 28">
       <r>    0.0333    1.0000 </r>
       <r>    0.2871    1.0000 </r>
       <r>    3.5478    1.0000 </r>
       <r>    4.3974    1.0005 </r>
       <r>    4.9339    0.4908 </r>
       <r>    8.0516    0.0000 </r>
       <r>   17.1399    0.0000 </r>
       <r>   18.0454    0.0000 </r>
       <r>   19.1581    0.0000 </r>
      </set>
      <set comment="kpoint 29">
       <r>    0.4228    1.0000 </r>
       <r>    1.3011    1.0000 </r>
       <r>    2.2916    1.0000 </r>
       <r>    3.2303    1.0000 </r>
       <r>    4.8549    0.8002 </r>
       <r>    7.7798    0.0000 </r>
       <r>   14.8048    0.0000 </r>
       <r>   20.9897    0.0000 </r>
       <r>   21.5169    0.0000 </r>
      </set>
      <set comment="kpoint 30">
       <r>    0.0722    1.0000 </r>
       <r>    0.3374    1.0000 </r>
       <r>    3.8058    1.0000 </r>
       <r>    4.1172    1.0000 </r>
       <r>    4.7158    1.0315 </r>
       <r>    5.3836   -0.0032 </r>
       <r>   19.7602    0.0000 </r>
       <r>   20.4569    0.0000 </r>
       <r>   20.6653    0.0000 </r>
      </set>
      <set comment="kpoint 31">
       <r>    0.3913    1.0000 </r>
       <r>    0.8930    1.0000 </r>
       <r>    2.4344    1.0000 </r>
       <r>    3.4685    1.0000 </r>
       <r>    4.1976    1.0000 </r>
       <r>    5.1617   -0.0345 </r>
       <r>   19.5698    0.0000 </r>
       <r>   21.6257    0.0000 </r>
       <r>   23.2166    0.0000 </r>
      </set>
      <set comment="kpoint 32">
       <r>   -0.2522    1.0000 </r>
       <r>    1.1277    1.0000 </r>
       <r>    2.7166    1.0000 </r>
       <r>    3.0490    1.0000 </r>
       <r>    3.4231    1.0000 </r>
       <r>    4.1864    1.0000 </r>
       <r>   22.5973    0.0000 </r>
       <r>   24.2872    0.0000 </r>
       <r>   24.3779    0.0000 </r>
      </set>
      <set comment="kpoint 33">
       <r>   -1.0797    1.0000 </r>
       <r>    1.8661    1.0000 </r>
       <r>    2.3914    1.0000 </r>
       <r>    2.3914    1.0000 </r>
       <r>    3.6688    1.0000 </r>
       <r>    3.6688    1.0000 </r>
       <r>   21.8669    0.0000 </r>
       <r>   24.2660    0.0000 </r>
       <r>   27.0268    0.0000 </r>
      </set>
      <set comment="kpoint 34">
       <r>   -0.2423    1.0000 </r>
       <r>    1.5722    1.0000 </r>
       <r>    2.4213    1.0000 </r>
       <r>    2.7093    1.0000 </r>
       <r>    3.2543    1.0000 </r>
       <r>    4.5097    1.0055 </r>
       <r>   20.6445    0.0000 </r>
       <r>   22.6428    0.0000 </r>
       <r>   27.1526    0.0000 </r>
      </set>
      <set comment="kpoint 35">
       <r>    0.6669    1.0000 </r>
       <r>    1.6006    1.0000 </r>
       <r>    2.0999    1.0000 </r>
       <r>    2.8856    1.0000 </r>
       <r>    3.5056    1.0000 </r>
       <r>    6.1071    0.0000 </r>
       <r>   17.8696    0.0000 </r>
       <r>   20.1224    0.0000 </r>
       <r>   25.5538    0.0000 </r>
      </set>
      <set comment="kpoint 36">
       <r>    0.4469    1.0000 </r>
       <r>    1.6042    1.0000 </r>
       <r>    2.7052    1.0000 </r>
       <r>    2.7241    1.0000 </r>
       <r>    4.4368    1.0013 </r>
       <r>    8.3531    0.0000 </r>
       <r>   13.4163    0.0000 </r>
       <r>   20.1726    0.0000 </r>
       <r>   24.4907    0.0000 </r>
      </set>
      <set comment="kpoint 37">
       <r>    0.2905    1.0000 </r>
       <r>    1.5337    1.0000 </r>
       <r>    2.6161    1.0000 </r>
       <r>    2.8147    1.0000 </r>
       <r>    4.9509    0.4193 </r>
       <r>    8.1801    0.0000 </r>
       <r>   13.2392    0.0000 </r>
       <r>   21.2466    0.0000 </r>
       <r>   23.5247    0.0000 </r>
      </set>
      <set comment="kpoint 38">
       <r>    0.3098    1.0000 </r>
       <r>    1.3004    1.0000 </r>
       <r>    2.2777    1.0000 </r>
       <r>    3.0428    1.0000 </r>
       <r>    4.7157    1.0316 </r>
       <r>    5.3166   -0.0101 </r>
       <r>   17.6881    0.0000 </r>
       <r>   22.9310    0.0000 </r>
       <r>   23.2824    0.0000 </r>
      </set>
      <set comment="kpoint 39">
       <r>   -0.0152    1.0000 </r>
       <r>    1.5996    1.0000 </r>
       <r>    2.2879    1.0000 </r>
       <r>    2.7103    1.0000 </r>
       <r>    4.1774    1.0000 </r>
       <r>    4.3770    1.0003 </r>
       <r>   19.0410    0.0000 </r>
       <r>   23.8652    0.0000 </r>
       <r>   25.1546    0.0000 </r>
      </set>
      <set comment="kpoint 40">
       <r>    0.6995    1.0000 </r>
       <r>    1.2792    1.0000 </r>
       <r>    1.9058    1.0000 </r>
       <r>    3.3508    1.0000 </r>
       <r>    3.9697    1.0000 </r>
       <r>    6.1650    0.0000 </r>
       <r>   17.9948    0.0000 </r>
       <r>   20.2516    0.0000 </r>
       <r>   23.5246    0.0000 </r>
      </set>
      <set comment="kpoint 41">
       <r>    1.0745    1.0000 </r>
       <r>    1.2573    1.0000 </r>
       <r>    1.6833    1.0000 </r>
       <r>    3.4837    1.0000 </r>
       <r>    4.3721    1.0003 </r>
       <r>    8.7472    0.0000 </r>
       <r>   15.4777    0.0000 </r>
       <r>   17.8963    0.0000 </r>
       <r>   21.5304    0.0000 </r>
      </set>
      <set comment="kpoint 42">
       <r>    0.7814    1.0000 </r>
       <r>    1.1440    1.0000 </r>
       <r>    2.1232    1.0000 </r>
       <r>    3.3832    1.0000 </r>
       <r>    4.8012    0.9424 </r>
       <r>   10.7374    0.0000 </r>
       <r>   12.6919    0.0000 </r>
       <r>   18.9819    0.0000 </r>
       <r>   19.8641    0.0000 </r>
      </set>
      <set comment="kpoint 43">
       <r>    0.6469    1.0000 </r>
       <r>    0.9654    1.0000 </r>
       <r>    2.1302    1.0000 </r>
       <r>    3.7954    1.0000 </r>
       <r>    4.4594    1.0021 </r>
       <r>    7.5594    0.0000 </r>
       <r>   16.8101    0.0000 </r>
       <r>   19.1010    0.0000 </r>
       <r>   20.9271    0.0000 </r>
      </set>
      <set comment="kpoint 44">
       <r>    0.2889    1.0000 </r>
       <r>    0.8954    1.0000 </r>
       <r>    2.6981    1.0000 </r>
       <r>    3.4618    1.0000 </r>
       <r>    4.9484    0.4297 </r>
       <r>    6.8979    0.0000 </r>
       <r>   16.4146    0.0000 </r>
       <r>   20.7107    0.0000 </r>
       <r>   21.7160    0.0000 </r>
      </set>
      <set comment="kpoint 45">
       <r>    0.4204    1.0000 </r>
       <r>    0.6982    1.0000 </r>
       <r>    2.5786    1.0000 </r>
       <r>    4.0562    1.0000 </r>
       <r>    4.8566    0.7944 </r>
       <r>    9.3298    0.0000 </r>
       <r>   15.8431    0.0000 </r>
       <r>   18.0031    0.0000 </r>
       <r>   18.5233    0.0000 </r>
      </set>
      <set comment="kpoint 46">
       <r>    0.6126    1.0000 </r>
       <r>    1.1771    1.0000 </r>
       <r>    1.9742    1.0000 </r>
       <r>    3.6832    1.0000 </r>
       <r>    5.1206   -0.0184 </r>
       <r>   12.5709    0.0000 </r>
       <r>   14.0121    0.0000 </r>
       <r>   16.1265    0.0000 </r>
       <r>   17.2014    0.0000 </r>
      </set>
      <set comment="kpoint 47">
       <r>    0.8233    1.0000 </r>
       <r>    1.1867    1.0000 </r>
       <r>    1.8138    1.0000 </r>
       <r>    3.6661    1.0000 </r>
       <r>    4.8237    0.8914 </r>
       <r>   10.6111    0.0000 </r>
       <r>   14.5557    0.0000 </r>
       <r>   17.1722    0.0000 </r>
       <r>   18.8788    0.0000 </r>
      </set>
      <set comment="kpoint 48">
       <r>    0.0003    1.0000 </r>
       <r>    0.4171    1.0000 </r>
       <r>    3.5493    1.0000 </r>
       <r>    4.2484    1.0000 </r>
       <r>    4.9748    0.3224 </r>
       <r>   10.4201    0.0000 </r>
       <r>   14.7615    0.0000 </r>
       <r>   16.0899    0.0000 </r>
       <r>   20.0056    0.0000 </r>
      </set>
      <set comment="kpoint 49">
       <r>    0.2460    1.0000 </r>
       <r>    0.5807    1.0000 </r>
       <r>    2.9269    1.0000 </r>
       <r>    4.0803    1.0000 </r>
       <r>    5.1229   -0.0199 </r>
       <r>   11.0320    0.0000 </r>
       <r>   15.2374    0.0000 </r>
       <r>   16.1209    0.0000 </r>
       <r>   17.8452    0.0000 </r>
      </set>
      <set comment="kpoint 50">
       <r>    0.1284    1.0000 </r>
       <r>    0.5745    1.0000 </r>
       <r>    3.2149    1.0000 </r>
       <r>    3.9046    1.0000 </r>
       <r>    5.0275    0.1418 </r>
       <r>    8.7529    0.0000 </r>
       <r>   15.3724    0.0000 </r>
       <r>   18.1437    0.0000 </r>
       <r>   20.5928    0.0000 </r>
      </set>
      <set comment="kpoint 51">
       <r>   -0.2690    1.0000 </r>
       <r>    2.3019    1.0000 </r>
       <r>    2.3019    1.0000 </r>
       <r>    2.8325    1.0000 </r>
       <r>    4.1888    1.0000 </r>
       <r>    4.1888    1.0000 </r>
       <r>   17.1579    0.0000 </r>
       <r>   23.4376    0.0000 </r>
       <r>   26.9963    0.0000 </r>
      </set>
      <set comment="kpoint 52">
       <r>    0.1636    1.0000 </r>
       <r>    2.0097    1.0000 </r>
       <r>    2.4921    1.0000 </r>
       <r>    2.6492    1.0000 </r>
       <r>    4.0105    1.0000 </r>
       <r>    5.9279    0.0000 </r>
       <r>   15.8978    0.0000 </r>
       <r>   22.0567    0.0000 </r>
       <r>   25.1200    0.0000 </r>
      </set>
      <set comment="kpoint 53">
       <r>    0.9098    1.0000 </r>
       <r>    1.5628    1.0000 </r>
       <r>    1.9906    1.0000 </r>
       <r>    3.1043    1.0000 </r>
       <r>    4.0547    1.0000 </r>
       <r>    8.4869    0.0000 </r>
       <r>   15.3555    0.0000 </r>
       <r>   17.7656    0.0000 </r>
       <r>   24.8725    0.0000 </r>
      </set>
      <set comment="kpoint 54">
       <r>    0.4951    1.0000 </r>
       <r>    1.2008    1.0000 </r>
       <r>    2.4335    1.0000 </r>
       <r>    3.5948    1.0000 </r>
       <r>    4.5843    1.0169 </r>
       <r>   11.4140    0.0000 </r>
       <r>   12.9436    0.0000 </r>
       <r>   16.4350    0.0000 </r>
       <r>   22.3608    0.0000 </r>
      </set>
      <set comment="kpoint 55">
       <r>    0.0524    1.0000 </r>
       <r>    1.8745    1.0000 </r>
       <r>    2.4961    1.0000 </r>
       <r>    2.8442    1.0000 </r>
       <r>    4.8800    0.7109 </r>
       <r>    6.2938    0.0000 </r>
       <r>   14.3563    0.0000 </r>
       <r>   22.6691    0.0000 </r>
       <r>   24.7373    0.0000 </r>
      </set>
      <set comment="kpoint 56">
       <r>    0.5981    1.0000 </r>
       <r>    1.3875    1.0000 </r>
       <r>    2.3057    1.0000 </r>
       <r>    3.0575    1.0000 </r>
       <r>    4.6790    1.0352 </r>
       <r>    8.7856    0.0000 </r>
       <r>   13.4932    0.0000 </r>
       <r>   20.3924    0.0000 </r>
       <r>   21.6447    0.0000 </r>
      </set>
      <set comment="kpoint 57">
       <r>    0.7266    1.0000 </r>
       <r>    1.2140    1.0000 </r>
       <r>    1.9930    1.0000 </r>
       <r>    3.5908    1.0000 </r>
       <r>    4.8240    0.8907 </r>
       <r>   11.8506    0.0000 </r>
       <r>   13.2136    0.0000 </r>
       <r>   16.5118    0.0000 </r>
       <r>   19.5945    0.0000 </r>
      </set>
      <set comment="kpoint 58">
       <r>    0.4588    1.0000 </r>
       <r>    1.2797    1.0000 </r>
       <r>    2.4859    1.0000 </r>
       <r>    3.2231    1.0000 </r>
       <r>    4.8176    0.9064 </r>
       <r>   10.2329    0.0000 </r>
       <r>   12.4721    0.0000 </r>
       <r>   18.8080    0.0000 </r>
       <r>   22.7401    0.0000 </r>
      </set>
      <set comment="kpoint 59">
       <r>   -0.3205    1.0000 </r>
       <r>    2.0908    1.0000 </r>
       <r>    2.0908    1.0000 </r>
       <r>    4.8009    0.9429 </r>
       <r>    4.8009    0.9429 </r>
       <r>    5.3088   -0.0114 </r>
       <r>   13.0080    0.0000 </r>
       <r>   22.4514    0.0000 </r>
       <r>   26.8793    0.0000 </r>
      </set>
      <set comment="kpoint 60">
       <r>    0.0179    1.0000 </r>
       <r>    1.7946    1.0000 </r>
       <r>    2.3694    1.0000 </r>
       <r>    3.4789    1.0000 </r>
       <r>    4.7674    0.9954 </r>
       <r>    7.7701    0.0000 </r>
       <r>   12.3115    0.0000 </r>
       <r>   21.9981    0.0000 </r>
       <r>   24.5822    0.0000 </r>
      </set>
     </set>
    </set>
   </array>
  </eigenvalues>
  <separator name="orbital magnetization" >
   <v name="MAGDIPOLOUT">      0.00000000      0.00000000      0.00000000</v>
  </separator>
  <dos>
   <i name="efermi">      4.93174840 </i>
   <total>
    <array>
     <dimension dim="1">gridpoints</dimension>
     <dimension dim="2">spin</dimension>
     <field>energy</field>
     <field>total</field>
     <field>integrated</field>
     <set>
      <set comment="spin 1">
       <r>    -4.0679     0.0000     0.0000 </r>
       <r>    -3.9558     0.0000     0.0000 </r>
       <r>    -3.8437     0.0000     0.0000 </r>
       <r>    -3.7316     0.0000     0.0000 </r>
       <r>    -3.6194     0.0000     0.0000 </r>
       <r>    -3.5073     0.0000     0.0000 </r>
       <r>    -3.3952     0.0000     0.0000 </r>
       <r>    -3.2831     0.0000     0.0000 </r>
       <r>    -3.1710     0.0000     0.0000 </r>
       <r>    -3.0589     0.0000     0.0000 </r>
       <r>    -2.9467     0.0000     0.0000 </r>
       <r>    -2.8346     0.0000     0.0000 </r>
       <r>    -2.7225     0.0000     0.0000 </r>
       <r>    -2.6104     0.0000     0.0000 </r>
       <r>    -2.4983    -0.0003     0.0000 </r>
       <r>    -2.3862    -0.0013    -0.0002 </r>
       <r>    -2.2740    -0.0004    -0.0002 </r>
       <r>    -2.1619     0.0116     0.0011 </r>
       <r>    -2.0498     0.0269     0.0041 </r>
       <r>    -1.9377     0.0217     0.0065 </r>
       <r>    -1.8256     0.0291     0.0098 </r>
       <r>    -1.7135     0.0756     0.0183 </r>
       <r>    -1.6013     0.0826     0.0275 </r>
       <r>    -1.4892     0.0537     0.0335 </r>
       <r>    -1.3771     0.0727     0.0417 </r>
       <r>    -1.2650     0.0812     0.0508 </r>
       <r>    -1.1529     0.0698     0.0586 </r>
       <r>    -1.0408     0.1010     0.0700 </r>
       <r>    -0.9286     0.1092     0.0822 </r>
       <r>    -0.8165     0.1295     0.0967 </r>
       <r>    -0.7044     0.1975     0.1189 </r>
       <r>    -0.5923     0.1744     0.1384 </r>
       <r>    -0.4802     0.0993     0.1496 </r>
       <r>    -0.3680     0.2138     0.1735 </r>
       <r>    -0.2559     0.5964     0.2404 </r>
       <r>    -0.1438     1.0214     0.3549 </r>
       <r>    -0.0317     1.3859     0.5103 </r>
       <r>     0.0804     1.5944     0.6890 </r>
       <r>     0.1925     1.7746     0.8880 </r>
       <r>     0.3047     2.3200     1.1481 </r>
       <r>     0.4168     2.5403     1.4329 </r>
       <r>     0.5289     2.1260     1.6713 </r>
       <r>     0.6410     1.9354     1.8883 </r>
       <r>     0.7531     1.9396     2.1058 </r>
       <r>     0.8652     1.7785     2.3051 </r>
       <r>     0.9774     1.4332     2.4658 </r>
       <r>     1.0895     1.2068     2.6011 </r>
       <r>     1.2016     1.5629     2.7764 </r>
       <r>     1.3137     1.8901     2.9883 </r>
       <r>     1.4258     1.6244     3.1704 </r>
       <r>     1.5379     1.4303     3.3308 </r>
       <r>     1.6501     1.5653     3.5063 </r>
       <r>     1.7622     1.6608     3.6925 </r>
       <r>     1.8743     1.7562     3.8894 </r>
       <r>     1.9864     1.9065     4.1031 </r>
       <r>     2.0985     2.1310     4.3420 </r>
       <r>     2.2106     2.2903     4.5988 </r>
       <r>     2.3228     2.4700     4.8757 </r>
       <r>     2.4349     2.8077     5.1905 </r>
       <r>     2.5470     2.8467     5.5097 </r>
       <r>     2.6591     2.3849     5.7771 </r>
       <r>     2.7712     1.8415     5.9835 </r>
       <r>     2.8833     1.6819     6.1721 </r>
       <r>     2.9955     1.8366     6.3780 </r>
       <r>     3.1076     1.6900     6.5675 </r>
       <r>     3.2197     1.2828     6.7113 </r>
       <r>     3.3318     1.3586     6.8636 </r>
       <r>     3.4439     2.0021     7.0881 </r>
       <r>     3.5560     2.4599     7.3639 </r>
       <r>     3.6682     2.2184     7.6126 </r>
       <r>     3.7803     1.6529     7.7979 </r>
       <r>     3.8924     1.5090     7.9671 </r>
       <r>     4.0045     1.8746     8.1773 </r>
       <r>     4.1166     1.9298     8.3936 </r>
       <r>     4.2287     1.4584     8.5572 </r>
       <r>     4.3409     1.3539     8.7090 </r>
       <r>     4.4530     1.8036     8.9112 </r>
       <r>     4.5651     1.9315     9.1277 </r>
       <r>     4.6772     1.8672     9.3371 </r>
       <r>     4.7893     2.3944     9.6055 </r>
       <r>     4.9014     2.8203     9.9217 </r>
       <r>     5.0136     2.2705    10.1763 </r>
       <r>     5.1257     1.5406    10.3490 </r>
       <r>     5.2378     1.0624    10.4681 </r>
       <r>     5.3499     0.5407    10.5288 </r>
       <r>     5.4620     0.1968    10.5508 </r>
       <r>     5.5741     0.1000    10.5620 </r>
       <r>     5.6863     0.0569    10.5684 </r>
       <r>     5.7984     0.0187    10.5705 </r>
       <r>     5.9105     0.0554    10.5767 </r>
       <r>     6.0226     0.2093    10.6002 </r>
       <r>     6.1347     0.4401    10.6495 </r>
       <r>     6.2468     0.5029    10.7059 </r>
       <r>     6.3590     0.3734    10.7478 </r>
       <r>     6.4711     0.2522    10.7761 </r>
       <r>     6.5832     0.1497    10.7928 </r>
       <r>     6.6953     0.0736    10.8011 </r>
       <r>     6.8074     0.1231    10.8149 </r>
       <r>     6.9195     0.2909    10.8475 </r>
       <r>     7.0317     0.3609    10.8880 </r>
       <r>     7.1438     0.3541    10.9277 </r>
       <r>     7.2559     0.3374    10.9655 </r>
       <r>     7.3680     0.2076    10.9888 </r>
       <r>     7.4801     0.1160    11.0018 </r>
       <r>     7.5922     0.1794    11.0219 </r>
       <r>     7.7044     0.2690    11.0521 </r>
       <r>     7.8165     0.2983    11.0855 </r>
       <r>     7.9286     0.2269    11.1109 </r>
       <r>     8.0407     0.1983    11.1332 </r>
       <r>     8.1528     0.2208    11.1579 </r>
       <r>     8.2649     0.1846    11.1786 </r>
       <r>     8.3771     0.2196    11.2033 </r>
       <r>     8.4892     0.3390    11.2413 </r>
       <r>     8.6013     0.3850    11.2844 </r>
       <r>     8.7134     0.4391    11.3337 </r>
       <r>     8.8255     0.4699    11.3863 </r>
       <r>     8.9376     0.2507    11.4144 </r>
       <r>     9.0498     0.0149    11.4161 </r>
       <r>     9.1619    -0.0134    11.4146 </r>
       <r>     9.2740     0.0959    11.4254 </r>
       <r>     9.3861     0.1990    11.4477 </r>
       <r>     9.4982     0.2151    11.4718 </r>
       <r>     9.6103     0.2299    11.4976 </r>
       <r>     9.7225     0.3229    11.5338 </r>
       <r>     9.8346     0.3997    11.5786 </r>
       <r>     9.9467     0.3232    11.6148 </r>
       <r>    10.0588     0.2126    11.6387 </r>
       <r>    10.1709     0.1390    11.6543 </r>
       <r>    10.2830     0.1087    11.6664 </r>
       <r>    10.3952     0.1126    11.6791 </r>
       <r>    10.5073     0.1526    11.6962 </r>
       <r>    10.6194     0.2560    11.7249 </r>
       <r>    10.7315     0.3141    11.7601 </r>
       <r>    10.8436     0.2193    11.7847 </r>
       <r>    10.9557     0.1439    11.8008 </r>
       <r>    11.0679     0.1729    11.8202 </r>
       <r>    11.1800     0.1233    11.8340 </r>
       <r>    11.2921     0.0448    11.8390 </r>
       <r>    11.4042     0.0603    11.8458 </r>
       <r>    11.5163     0.0804    11.8548 </r>
       <r>    11.6284     0.1188    11.8681 </r>
       <r>    11.7406     0.2421    11.8953 </r>
       <r>    11.8527     0.2982    11.9287 </r>
       <r>    11.9648     0.1784    11.9487 </r>
       <r>    12.0769     0.0269    11.9517 </r>
       <r>    12.1890     0.0684    11.9594 </r>
       <r>    12.3011     0.2978    11.9928 </r>
       <r>    12.4133     0.4653    12.0449 </r>
       <r>    12.5254     0.5315    12.1045 </r>
       <r>    12.6375     0.5181    12.1626 </r>
       <r>    12.7496     0.3318    12.1998 </r>
       <r>    12.8617     0.1367    12.2152 </r>
       <r>    12.9738     0.1378    12.2306 </r>
       <r>    13.0860     0.3023    12.2645 </r>
       <r>    13.1981     0.4990    12.3204 </r>
       <r>    13.3102     0.5515    12.3823 </r>
       <r>    13.4223     0.4268    12.4301 </r>
       <r>    13.5344     0.2787    12.4614 </r>
       <r>    13.6465     0.1287    12.4758 </r>
       <r>    13.7587     0.0866    12.4855 </r>
       <r>    13.8708     0.1921    12.5070 </r>
       <r>    13.9829     0.2683    12.5371 </r>
       <r>    14.0950     0.2907    12.5697 </r>
       <r>    14.2071     0.3247    12.6061 </r>
       <r>    14.3193     0.2938    12.6391 </r>
       <r>    14.4314     0.2204    12.6638 </r>
       <r>    14.5435     0.2967    12.6971 </r>
       <r>    14.6556     0.4135    12.7434 </r>
       <r>    14.7677     0.3956    12.7878 </r>
       <r>    14.8798     0.2722    12.8183 </r>
       <r>    14.9920     0.0872    12.8281 </r>
       <r>    15.1041     0.0190    12.8302 </r>
       <r>    15.2162     0.1535    12.8474 </r>
       <r>    15.3283     0.3345    12.8849 </r>
       <r>    15.4404     0.3856    12.9281 </r>
       <r>    15.5525     0.2766    12.9591 </r>
       <r>    15.6647     0.1744    12.9787 </r>
       <r>    15.7768     0.3116    13.0136 </r>
       <r>    15.8889     0.5716    13.0777 </r>
       <r>    16.0010     0.7012    13.1563 </r>
       <r>    16.1131     0.7750    13.2432 </r>
       <r>    16.2252     0.6493    13.3160 </r>
       <r>    16.3374     0.3364    13.3537 </r>
       <r>    16.4495     0.2930    13.3866 </r>
       <r>    16.5616     0.4241    13.4341 </r>
       <r>    16.6737     0.4487    13.4844 </r>
       <r>    16.7858     0.4333    13.5330 </r>
       <r>    16.8979     0.3752    13.5751 </r>
       <r>    17.0101     0.3385    13.6131 </r>
       <r>    17.1222     0.5011    13.6692 </r>
       <r>    17.2343     0.6342    13.7403 </r>
       <r>    17.3464     0.4635    13.7923 </r>
       <r>    17.4585     0.1964    13.8143 </r>
       <r>    17.5706     0.0423    13.8191 </r>
       <r>    17.6828     0.1250    13.8331 </r>
       <r>    17.7949     0.4983    13.8890 </r>
       <r>    17.9070     0.9138    13.9914 </r>
       <r>    18.0191     0.9766    14.1009 </r>
       <r>    18.1312     0.6548    14.1743 </r>
       <r>    18.2433     0.3276    14.2110 </r>
       <r>    18.3555     0.2791    14.2423 </r>
       <r>    18.4676     0.4757    14.2957 </r>
       <r>    18.5797     0.6224    14.3654 </r>
       <r>    18.6918     0.4811    14.4194 </r>
       <r>    18.8039     0.4307    14.4677 </r>
       <r>    18.9160     0.6442    14.5399 </r>
       <r>    19.0282     0.7280    14.6215 </r>
       <r>    19.1403     0.6288    14.6920 </r>
       <r>    19.2524     0.4970    14.7477 </r>
       <r>    19.3645     0.4101    14.7937 </r>
       <r>    19.4766     0.4411    14.8432 </r>
       <r>    19.5887     0.5000    14.8992 </r>
       <r>    19.7009     0.4108    14.9453 </r>
       <r>    19.8130     0.2893    14.9777 </r>
       <r>    19.9251     0.2464    15.0053 </r>
       <r>    20.0372     0.2317    15.0313 </r>
       <r>    20.1493     0.4033    15.0765 </r>
       <r>    20.2614     0.7134    15.1565 </r>
       <r>    20.3736     0.7581    15.2415 </r>
       <r>    20.4857     0.6045    15.3093 </r>
       <r>    20.5978     0.6421    15.3813 </r>
       <r>    20.7099     0.7094    15.4608 </r>
       <r>    20.8220     0.5783    15.5256 </r>
       <r>    20.9341     0.5139    15.5832 </r>
       <r>    21.0463     0.4864    15.6378 </r>
       <r>    21.1584     0.4022    15.6829 </r>
       <r>    21.2705     0.3118    15.7178 </r>
       <r>    21.3826     0.2719    15.7483 </r>
       <r>    21.4947     0.5547    15.8105 </r>
       <r>    21.6068     0.9349    15.9153 </r>
       <r>    21.7190     0.8380    16.0093 </r>
       <r>    21.8311     0.3677    16.0505 </r>
       <r>    21.9432     0.1251    16.0645 </r>
       <r>    22.0553     0.2299    16.0903 </r>
       <r>    22.1674     0.3909    16.1341 </r>
       <r>    22.2795     0.6024    16.2017 </r>
       <r>    22.3917     0.8423    16.2961 </r>
       <r>    22.5038     0.7877    16.3844 </r>
       <r>    22.6159     0.5821    16.4497 </r>
       <r>    22.7280     0.4577    16.5010 </r>
       <r>    22.8401     0.4162    16.5476 </r>
       <r>    22.9522     0.5722    16.6118 </r>
       <r>    23.0644     0.7246    16.6930 </r>
       <r>    23.1765     0.6464    16.7655 </r>
       <r>    23.2886     0.4424    16.8151 </r>
       <r>    23.4007     0.3161    16.8505 </r>
       <r>    23.5128     0.5175    16.9086 </r>
       <r>    23.6249     0.7771    16.9957 </r>
       <r>    23.7371     0.6265    17.0659 </r>
       <r>    23.8492     0.3479    17.1049 </r>
       <r>    23.9613     0.3215    17.1410 </r>
       <r>    24.0734     0.3892    17.1846 </r>
       <r>    24.1855     0.3793    17.2271 </r>
       <r>    24.2976     0.3439    17.2657 </r>
       <r>    24.4098     0.3373    17.3035 </r>
       <r>    24.5219     0.3749    17.3456 </r>
       <r>    24.6340     0.4139    17.3920 </r>
       <r>    24.7461     0.3526    17.4315 </r>
       <r>    24.8582     0.2105    17.4551 </r>
       <r>    24.9703     0.1130    17.4678 </r>
       <r>    25.0825     0.1282    17.4821 </r>
       <r>    25.1946     0.1641    17.5005 </r>
       <r>    25.3067     0.1389    17.5161 </r>
       <r>    25.4188     0.2534    17.5445 </r>
       <r>    25.5309     0.4718    17.5974 </r>
       <r>    25.6430     0.4309    17.6457 </r>
       <r>    25.7552     0.2627    17.6752 </r>
       <r>    25.8673     0.2466    17.7028 </r>
       <r>    25.9794     0.2503    17.7309 </r>
       <r>    26.0915     0.2167    17.7552 </r>
       <r>    26.2036     0.1488    17.7719 </r>
       <r>    26.3157     0.0928    17.7823 </r>
       <r>    26.4279     0.0770    17.7909 </r>
       <r>    26.5400     0.0413    17.7955 </r>
       <r>    26.6521     0.0730    17.8037 </r>
       <r>    26.7642     0.1899    17.8250 </r>
       <r>    26.8763     0.2354    17.8514 </r>
       <r>    26.9884     0.2575    17.8803 </r>
       <r>    27.1006     0.3212    17.9163 </r>
       <r>    27.2127     0.3143    17.9515 </r>
       <r>    27.3248     0.2341    17.9778 </r>
       <r>    27.4369     0.1254    17.9918 </r>
       <r>    27.5490     0.0470    17.9971 </r>
       <r>    27.6611     0.0214    17.9995 </r>
       <r>    27.7733     0.0075    18.0003 </r>
       <r>    27.8854    -0.0011    18.0002 </r>
       <r>    27.9975    -0.0014    18.0000 </r>
       <r>    28.1096    -0.0003    18.0000 </r>
       <r>    28.2217     0.0000    18.0000 </r>
       <r>    28.3338     0.0000    18.0000 </r>
       <r>    28.4460     0.0000    18.0000 </r>
       <r>    28.5581     0.0000    18.0000 </r>
       <r>    28.6702     0.0000    18.0000 </r>
       <r>    28.7823     0.0000    18.0000 </r>
       <r>    28.8944     0.0000    18.0000 </r>
       <r>    29.0066     0.0000    18.0000 </r>
       <r>    29.1187     0.0000    18.0000 </r>
       <r>    29.2308     0.0000    18.0000 </r>
       <r>    29.3429     0.0000    18.0000 </r>
       <r>    29.4550     0.0000    18.0000 </r>
       <r>    29.5671     0.0000    18.0000 </r>
      </set>
     </set>
    </array>
   </total>
   <partial>
    <array>
     <dimension dim="1">gridpoints</dimension>
     <dimension dim="2">spin</dimension>
     <dimension dim="3">ion</dimension>
     <field>energy</field>
     <field>  s</field>
     <field>  p</field>
     <field>  d</field>
     <set>
      <set comment="ion 1">
       <set comment="spin 1">
        <r>    -4.0679     0.0000     0.0000     0.0000 </r>
        <r>    -3.9558     0.0000     0.0000     0.0000 </r>
        <r>    -3.8437     0.0000     0.0000     0.0000 </r>
        <r>    -3.7316     0.0000     0.0000     0.0000 </r>
        <r>    -3.6194     0.0000     0.0000     0.0000 </r>
        <r>    -3.5073     0.0000     0.0000     0.0000 </r>
        <r>    -3.3952     0.0000     0.0000     0.0000 </r>
        <r>    -3.2831     0.0000     0.0000     0.0000 </r>
        <r>    -3.1710     0.0000     0.0000     0.0000 </r>
        <r>    -3.0589     0.0000     0.0000     0.0000 </r>
        <r>    -2.9467     0.0000     0.0000     0.0000 </r>
        <r>    -2.8346     0.0000     0.0000     0.0000 </r>
        <r>    -2.7225     0.0000     0.0000     0.0000 </r>
        <r>    -2.6104     0.0000     0.0000     0.0000 </r>
        <r>    -2.4983    -0.0002     0.0000     0.0000 </r>
        <r>    -2.3862    -0.0010     0.0000     0.0000 </r>
        <r>    -2.2740    -0.0003     0.0000     0.0000 </r>
        <r>    -2.1619     0.0087     0.0001     0.0000 </r>
        <r>    -2.0498     0.0202     0.0002     0.0000 </r>
        <r>    -1.9377     0.0163     0.0001     0.0000 </r>
        <r>    -1.8256     0.0211     0.0009     0.0001 </r>
        <r>    -1.7135     0.0542     0.0029     0.0003 </r>
        <r>    -1.6013     0.0593     0.0031     0.0003 </r>
        <r>    -1.4892     0.0378     0.0025     0.0005 </r>
        <r>    -1.3771     0.0499     0.0044     0.0012 </r>
        <r>    -1.2650     0.0556     0.0050     0.0014 </r>
        <r>    -1.1529     0.0464     0.0050     0.0020 </r>
        <r>    -1.0408     0.0656     0.0083     0.0035 </r>
        <r>    -0.9286     0.0706     0.0093     0.0036 </r>
        <r>    -0.8165     0.0811     0.0126     0.0058 </r>
        <r>    -0.7044     0.1223     0.0201     0.0097 </r>
        <r>    -0.5923     0.1100     0.0181     0.0059 </r>
        <r>    -0.4802     0.0552     0.0088     0.0137 </r>
        <r>    -0.3680     0.0656     0.0107     0.1039 </r>
        <r>    -0.2559     0.1659     0.0287     0.3148 </r>
        <r>    -0.1438     0.2425     0.0445     0.5966 </r>
        <r>    -0.0317     0.2766     0.0576     0.8785 </r>
        <r>     0.0804     0.2727     0.0650     1.0691 </r>
        <r>     0.1925     0.2303     0.0689     1.2837 </r>
        <r>     0.3047     0.2629     0.0952     1.7193 </r>
        <r>     0.4168     0.2797     0.1100     1.8874 </r>
        <r>     0.5289     0.1821     0.0927     1.6449 </r>
        <r>     0.6410     0.1121     0.0902     1.5567 </r>
        <r>     0.7531     0.1015     0.0970     1.5619 </r>
        <r>     0.8652     0.0831     0.0923     1.4385 </r>
        <r>     0.9774     0.0599     0.0825     1.1602 </r>
        <r>     1.0895     0.0369     0.0809     0.9835 </r>
        <r>     1.2016     0.0261     0.1102     1.2927 </r>
        <r>     1.3137     0.0285     0.1320     1.5608 </r>
        <r>     1.4258     0.0261     0.1059     1.3454 </r>
        <r>     1.5379     0.0235     0.0735     1.2182 </r>
        <r>     1.6501     0.0298     0.0722     1.3473 </r>
        <r>     1.7622     0.0349     0.0852     1.4146 </r>
        <r>     1.8743     0.0306     0.0952     1.5010 </r>
        <r>     1.9864     0.0308     0.1172     1.6246 </r>
        <r>     2.0985     0.0514     0.1418     1.7880 </r>
        <r>     2.2106     0.0656     0.1303     1.9388 </r>
        <r>     2.3228     0.0544     0.1076     2.1574 </r>
        <r>     2.4349     0.0422     0.1194     2.4858 </r>
        <r>     2.5470     0.0412     0.1442     2.4948 </r>
        <r>     2.6591     0.0420     0.1412     2.0548 </r>
        <r>     2.7712     0.0379     0.1252     1.5581 </r>
        <r>     2.8833     0.0351     0.1224     1.4123 </r>
        <r>     2.9955     0.0373     0.1220     1.5598 </r>
        <r>     3.1076     0.0343     0.0952     1.4571 </r>
        <r>     3.2197     0.0222     0.0524     1.1365 </r>
        <r>     3.3318     0.0139     0.0404     1.2367 </r>
        <r>     3.4439     0.0176     0.0808     1.8002 </r>
        <r>     3.5560     0.0251     0.1144     2.1895 </r>
        <r>     3.6682     0.0275     0.0905     1.9862 </r>
        <r>     3.7803     0.0243     0.0595     1.4873 </r>
        <r>     3.8924     0.0171     0.0527     1.3702 </r>
        <r>     4.0045     0.0135     0.0543     1.7297 </r>
        <r>     4.1166     0.0212     0.0557     1.7734 </r>
        <r>     4.2287     0.0266     0.0522     1.3150 </r>
        <r>     4.3409     0.0184     0.0413     1.2400 </r>
        <r>     4.4530     0.0120     0.0326     1.6994 </r>
        <r>     4.5651     0.0116     0.0279     1.8331 </r>
        <r>     4.6772     0.0090     0.0217     1.7840 </r>
        <r>     4.7893     0.0078     0.0225     2.3021 </r>
        <r>     4.9014     0.0090     0.0249     2.7167 </r>
        <r>     5.0136     0.0152     0.0237     2.1758 </r>
        <r>     5.1257     0.0307     0.0318     1.4338 </r>
        <r>     5.2378     0.0448     0.0522     0.9208 </r>
        <r>     5.3499     0.0448     0.0667     0.3884 </r>
        <r>     5.4620     0.0313     0.0557     0.0811 </r>
        <r>     5.5741     0.0150     0.0324     0.0365 </r>
        <r>     5.6863     0.0045     0.0142     0.0308 </r>
        <r>     5.7984     0.0007     0.0033     0.0129 </r>
        <r>     5.9105     0.0055     0.0065     0.0392 </r>
        <r>     6.0226     0.0249     0.0284     0.1386 </r>
        <r>     6.1347     0.0555     0.0643     0.2818 </r>
        <r>     6.2468     0.0651     0.0828     0.3077 </r>
        <r>     6.3590     0.0511     0.0775     0.2041 </r>
        <r>     6.4711     0.0342     0.0692     0.1156 </r>
        <r>     6.5832     0.0125     0.0589     0.0523 </r>
        <r>     6.6953    -0.0005     0.0405     0.0166 </r>
        <r>     6.8074     0.0086     0.0483     0.0448 </r>
        <r>     6.9195     0.0297     0.1036     0.1116 </r>
        <r>     7.0317     0.0416     0.1271     0.1362 </r>
        <r>     7.1438     0.0487     0.1016     0.1559 </r>
        <r>     7.2559     0.0520     0.0709     0.1760 </r>
        <r>     7.3680     0.0343     0.0360     0.1158 </r>
        <r>     7.4801     0.0211     0.0221     0.0605 </r>
        <r>     7.5922     0.0302     0.0445     0.0830 </r>
        <r>     7.7044     0.0357     0.0809     0.1151 </r>
        <r>     7.8165     0.0316     0.1021     0.1192 </r>
        <r>     7.9286     0.0242     0.0824     0.0850 </r>
        <r>     8.0407     0.0251     0.0774     0.0652 </r>
        <r>     8.1528     0.0273     0.0867     0.0726 </r>
        <r>     8.2649     0.0201     0.0713     0.0638 </r>
        <r>     8.3771     0.0203     0.0920     0.0695 </r>
        <r>     8.4892     0.0260     0.1502     0.1019 </r>
        <r>     8.6013     0.0298     0.1627     0.1247 </r>
        <r>     8.7134     0.0525     0.1559     0.1612 </r>
        <r>     8.8255     0.0689     0.1507     0.1806 </r>
        <r>     8.9376     0.0375     0.0794     0.0969 </r>
        <r>     9.0498     0.0021     0.0042     0.0063 </r>
        <r>     9.1619    -0.0015    -0.0047    -0.0051 </r>
        <r>     9.2740     0.0151     0.0336     0.0332 </r>
        <r>     9.3861     0.0274     0.0766     0.0648 </r>
        <r>     9.4982     0.0187     0.1041     0.0565 </r>
        <r>     9.6103     0.0097     0.1269     0.0517 </r>
        <r>     9.7225     0.0191     0.1547     0.0918 </r>
        <r>     9.8346     0.0334     0.1681     0.1288 </r>
        <r>     9.9467     0.0411     0.1191     0.1073 </r>
        <r>    10.0588     0.0406     0.0643     0.0713 </r>
        <r>    10.1709     0.0216     0.0472     0.0458 </r>
        <r>    10.2830     0.0026     0.0533     0.0327 </r>
        <r>    10.3952     0.0002     0.0621     0.0301 </r>
        <r>    10.5073     0.0125     0.0723     0.0419 </r>
        <r>    10.6194     0.0319     0.1030     0.0779 </r>
        <r>    10.7315     0.0332     0.1275     0.0988 </r>
        <r>    10.8436     0.0151     0.0966     0.0683 </r>
        <r>    10.9557     0.0050     0.0742     0.0390 </r>
        <r>    11.0679     0.0060     0.0947     0.0422 </r>
        <r>    11.1800     0.0045     0.0675     0.0301 </r>
        <r>    11.2921     0.0050     0.0201     0.0111 </r>
        <r>    11.4042     0.0133     0.0185     0.0152 </r>
        <r>    11.5163     0.0142     0.0287     0.0205 </r>
        <r>    11.6284     0.0072     0.0581     0.0322 </r>
        <r>    11.7406     0.0136     0.1196     0.0662 </r>
        <r>    11.8527     0.0290     0.1336     0.0800 </r>
        <r>    11.9648     0.0214     0.0752     0.0460 </r>
        <r>    12.0769     0.0008     0.0137     0.0056 </r>
        <r>    12.1890     0.0389    -0.0044     0.0275 </r>
        <r>    12.3011     0.1479     0.0061     0.1099 </r>
        <r>    12.4133     0.2066     0.0393     0.1593 </r>
        <r>    12.5254     0.1822     0.1079     0.1606 </r>
        <r>    12.6375     0.1434     0.1453     0.1430 </r>
        <r>    12.7496     0.0933     0.0935     0.0875 </r>
        <r>    12.8617     0.0400     0.0368     0.0366 </r>
        <r>    12.9738     0.0379     0.0351     0.0451 </r>
        <r>    13.0860     0.0931     0.0671     0.0968 </r>
        <r>    13.1981     0.1420     0.1305     0.1402 </r>
        <r>    13.3102     0.1448     0.1632     0.1381 </r>
        <r>    13.4223     0.1204     0.1166     0.1077 </r>
        <r>    13.5344     0.0903     0.0605     0.0787 </r>
        <r>    13.6465     0.0444     0.0244     0.0381 </r>
        <r>    13.7587     0.0268     0.0224     0.0183 </r>
        <r>    13.8708     0.0506     0.0606     0.0366 </r>
        <r>    13.9829     0.0570     0.0978     0.0540 </r>
        <r>    14.0950     0.0490     0.1147     0.0679 </r>
        <r>    14.2071     0.0606     0.1137     0.0913 </r>
        <r>    14.3193     0.0686     0.0843     0.0897 </r>
        <r>    14.4314     0.0571     0.0580     0.0652 </r>
        <r>    14.5435     0.0679     0.0913     0.0788 </r>
        <r>    14.6556     0.0959     0.1292     0.1029 </r>
        <r>    14.7677     0.1004     0.1198     0.0873 </r>
        <r>    14.8798     0.0725     0.0812     0.0542 </r>
        <r>    14.9920     0.0234     0.0255     0.0176 </r>
        <r>    15.1041     0.0077     0.0054     0.0006 </r>
        <r>    15.2162     0.0466     0.0492     0.0189 </r>
        <r>    15.3283     0.0859     0.1113     0.0561 </r>
        <r>    15.4404     0.0818     0.1338     0.0806 </r>
        <r>    15.5525     0.0494     0.0979     0.0680 </r>
        <r>    15.6647     0.0385     0.0513     0.0472 </r>
        <r>    15.7768     0.1032     0.0644     0.0767 </r>
        <r>    15.8889     0.1919     0.1155     0.1406 </r>
        <r>    16.0010     0.2168     0.1460     0.1860 </r>
        <r>    16.1131     0.2279     0.1579     0.2183 </r>
        <r>    16.2252     0.1959     0.1235     0.1855 </r>
        <r>    16.3374     0.1002     0.0658     0.0928 </r>
        <r>    16.4495     0.0762     0.0715     0.0721 </r>
        <r>    16.5616     0.1021     0.1112     0.1050 </r>
        <r>    16.6737     0.0805     0.1443     0.1073 </r>
        <r>    16.7858     0.0468     0.1721     0.0931 </r>
        <r>    16.8979     0.0458     0.1451     0.0784 </r>
        <r>    17.0101     0.0662     0.1082     0.0712 </r>
        <r>    17.1222     0.0970     0.1625     0.1019 </r>
        <r>    17.2343     0.1041     0.2130     0.1383 </r>
        <r>    17.3464     0.0703     0.1486     0.1154 </r>
        <r>    17.4585     0.0325     0.0550     0.0563 </r>
        <r>    17.5706     0.0097     0.0082     0.0143 </r>
        <r>    17.6828     0.0202     0.0392     0.0312 </r>
        <r>    17.7949     0.0699     0.1726     0.1126 </r>
        <r>    17.9070     0.1281     0.3234     0.1985 </r>
        <r>    18.0191     0.1503     0.3307     0.2209 </r>
        <r>    18.1312     0.1111     0.2018     0.1649 </r>
        <r>    18.2433     0.0549     0.0994     0.0844 </r>
        <r>    18.3555     0.0369     0.0954     0.0648 </r>
        <r>    18.4676     0.0388     0.1758     0.1113 </r>
        <r>    18.5797     0.0254     0.2634     0.1252 </r>
        <r>    18.6918     0.0120     0.2225     0.0785 </r>
        <r>    18.8039     0.0346     0.1581     0.0979 </r>
        <r>    18.9160     0.0741     0.1970     0.1792 </r>
        <r>    19.0282     0.0818     0.2417     0.1865 </r>
        <r>    19.1403     0.0575     0.2444     0.1310 </r>
        <r>    19.2524     0.0369     0.2074     0.0872 </r>
        <r>    19.3645     0.0328     0.1608     0.0733 </r>
        <r>    19.4766     0.0381     0.1596     0.0926 </r>
        <r>    19.5887     0.0427     0.1771     0.1159 </r>
        <r>    19.7009     0.0315     0.1520     0.0939 </r>
        <r>    19.8130     0.0162     0.1157     0.0612 </r>
        <r>    19.9251     0.0094     0.1028     0.0496 </r>
        <r>    20.0372     0.0073     0.1002     0.0439 </r>
        <r>    20.1493     0.0153     0.1692     0.0827 </r>
        <r>    20.2614     0.0295     0.2947     0.1507 </r>
        <r>    20.3736     0.0376     0.2947     0.1677 </r>
        <r>    20.4857     0.0418     0.2009     0.1482 </r>
        <r>    20.5978     0.0459     0.2147     0.1514 </r>
        <r>    20.7099     0.0437     0.2589     0.1519 </r>
        <r>    20.8220     0.0379     0.1960     0.1301 </r>
        <r>    20.9341     0.0397     0.1341     0.1380 </r>
        <r>    21.0463     0.0339     0.1153     0.1381 </r>
        <r>    21.1584     0.0197     0.1055     0.1055 </r>
        <r>    21.2705     0.0117     0.0903     0.0741 </r>
        <r>    21.3826     0.0120     0.0862     0.0661 </r>
        <r>    21.4947     0.0284     0.1872     0.1347 </r>
        <r>    21.6068     0.0443     0.3109     0.2165 </r>
        <r>    21.7190     0.0338     0.2752     0.1839 </r>
        <r>    21.8311     0.0115     0.1209     0.0744 </r>
        <r>    21.9432     0.0029     0.0264     0.0225 </r>
        <r>    22.0553     0.0088     0.0357     0.0487 </r>
        <r>    22.1674     0.0148     0.0783     0.0869 </r>
        <r>    22.2795     0.0130     0.1469     0.1185 </r>
        <r>    22.3917     0.0119     0.2235     0.1418 </r>
        <r>    22.5038     0.0146     0.2116     0.1284 </r>
        <r>    22.6159     0.0137     0.1422     0.1013 </r>
        <r>    22.7280     0.0071     0.1012     0.0819 </r>
        <r>    22.8401     0.0038     0.0949     0.0904 </r>
        <r>    22.9522     0.0101     0.1198     0.1371 </r>
        <r>    23.0644     0.0195     0.1467     0.1502 </r>
        <r>    23.1765     0.0217     0.1389     0.1205 </r>
        <r>    23.2886     0.0145     0.1060     0.0848 </r>
        <r>    23.4007     0.0078     0.0805     0.0556 </r>
        <r>    23.5128     0.0144     0.1189     0.0843 </r>
        <r>    23.6249     0.0231     0.1637     0.1336 </r>
        <r>    23.7371     0.0165     0.1116     0.1129 </r>
        <r>    23.8492     0.0080     0.0476     0.0610 </r>
        <r>    23.9613     0.0114     0.0545     0.0471 </r>
        <r>    24.0734     0.0157     0.0707     0.0547 </r>
        <r>    24.1855     0.0118     0.0603     0.0518 </r>
        <r>    24.2976     0.0058     0.0521     0.0496 </r>
        <r>    24.4098     0.0056     0.0464     0.0539 </r>
        <r>    24.5219     0.0117     0.0690     0.0480 </r>
        <r>    24.6340     0.0161     0.1329     0.0391 </r>
        <r>    24.7461     0.0122     0.1458     0.0348 </r>
        <r>    24.8582     0.0064     0.0765     0.0263 </r>
        <r>    24.9703     0.0040     0.0224     0.0155 </r>
        <r>    25.0825     0.0033     0.0380     0.0137 </r>
        <r>    25.1946     0.0028     0.0633     0.0175 </r>
        <r>    25.3067     0.0026     0.0459     0.0154 </r>
        <r>    25.4188     0.0060     0.0588     0.0298 </r>
        <r>    25.5309     0.0106     0.1188     0.0579 </r>
        <r>    25.6430     0.0100     0.1149     0.0511 </r>
        <r>    25.7552     0.0076     0.0685     0.0271 </r>
        <r>    25.8673     0.0075     0.0719     0.0226 </r>
        <r>    25.9794     0.0057     0.0931     0.0234 </r>
        <r>    26.0915     0.0028     0.0929     0.0236 </r>
        <r>    26.2036     0.0010     0.0643     0.0197 </r>
        <r>    26.3157     0.0000     0.0428     0.0146 </r>
        <r>    26.4279    -0.0002     0.0396     0.0127 </r>
        <r>    26.5400     0.0000     0.0205     0.0064 </r>
        <r>    26.6521     0.0004     0.0171     0.0059 </r>
        <r>    26.7642     0.0006     0.0482     0.0153 </r>
        <r>    26.8763     0.0005     0.0829     0.0201 </r>
        <r>    26.9884     0.0008     0.1333     0.0262 </r>
        <r>    27.1006     0.0015     0.1652     0.0347 </r>
        <r>    27.2127     0.0014     0.1283     0.0291 </r>
        <r>    27.3248     0.0006     0.0781     0.0182 </r>
        <r>    27.4369     0.0000     0.0429     0.0093 </r>
        <r>    27.5490     0.0000     0.0219     0.0021 </r>
        <r>    27.6611     0.0000     0.0139    -0.0004 </r>
        <r>    27.7733     0.0000     0.0052    -0.0003 </r>
        <r>    27.8854     0.0000    -0.0005    -0.0001 </r>
        <r>    27.9975     0.0000    -0.0008     0.0000 </r>
        <r>    28.1096     0.0000    -0.0002     0.0000 </r>
        <r>    28.2217     0.0000     0.0000     0.0000 </r>
        <r>    28.3338     0.0000     0.0000     0.0000 </r>
        <r>    28.4460     0.0000     0.0000     0.0000 </r>
        <r>    28.5581     0.0000     0.0000     0.0000 </r>
        <r>    28.6702     0.0000     0.0000     0.0000 </r>
        <r>    28.7823     0.0000     0.0000     0.0000 </r>
        <r>    28.8944     0.0000     0.0000     0.0000 </r>
        <r>    29.0066     0.0000     0.0000     0.0000 </r>
        <r>    29.1187     0.0000     0.0000     0.0000 </r>
        <r>    29.2308     0.0000     0.0000     0.0000 </r>
        <r>    29.3429     0.0000     0.0000     0.0000 </r>
        <r>    29.4550     0.0000     0.0000     0.0000 </r>
        <r>    29.5671     0.0000     0.0000     0.0000 </r>
       </set>
[...]
       <set comment="band 3">
        <r>  0.0337  0.1399  0.7348 </r>
       </set>
       <set comment="band 4">
        <r>  0.0000  0.0085  0.9476 </r>
       </set>
       <set comment="band 5">
        <r>  0.0000  0.0000  0.9814 </r>
       </set>
       <set comment="band 6">
        <r>  0.0836  0.3849  0.3686 </r>
       </set>
       <set comment="band 7">
        <r>  0.3647  0.1763  0.2852 </r>
       </set>
       <set comment="band 8">
        <r>  0.0506  0.2186  0.2527 </r>
       </set>
       <set comment="band 9">
        <r>  0.0000  0.5132  0.1337 </r>
       </set>
      </set>
      <set comment="kpoint 38">
       <set comment="band 1">
        <r>  0.1928  0.0605  0.6236 </r>
       </set>
       <set comment="band 2">
        <r>  0.0526  0.0842  0.7588 </r>
       </set>
       <set comment="band 3">
        <r>  0.0709  0.0450  0.8135 </r>
       </set>
       <set comment="band 4">
        <r>  0.0000  0.0113  0.9490 </r>
       </set>
       <set comment="band 5">
        <r>  0.0000  0.0019  0.9778 </r>
       </set>
       <set comment="band 6">
        <r>  0.1312  0.1626  0.6069 </r>
       </set>
       <set comment="band 7">
        <r>  0.1577  0.3260  0.2408 </r>
       </set>
       <set comment="band 8">
        <r>  0.0148  0.1098  0.2725 </r>
       </set>
       <set comment="band 9">
        <r>  0.0000  0.4985  0.1609 </r>
       </set>
      </set>
      <set comment="kpoint 39">
       <set comment="band 1">
        <r>  0.3893  0.0933  0.3451 </r>
       </set>
       <set comment="band 2">
        <r>  0.0712  0.0866  0.7463 </r>
       </set>
       <set comment="band 3">
        <r>  0.0054  0.0040  0.9414 </r>
       </set>
       <set comment="band 4">
        <r>  0.0000  0.0086  0.9532 </r>
       </set>
       <set comment="band 5">
        <r>  0.0722  0.0728  0.7881 </r>
       </set>
       <set comment="band 6">
        <r>  0.0000  0.0021  0.9735 </r>
       </set>
       <set comment="band 7">
        <r>  0.1301  0.2898  0.2587 </r>
       </set>
       <set comment="band 8">
        <r>  0.0014  0.0233  0.1923 </r>
       </set>
       <set comment="band 9">
        <r>  0.0000  0.4525  0.2047 </r>
       </set>
      </set>
      <set comment="kpoint 40">
       <set comment="band 1">
        <r>  0.1825  0.0912  0.5990 </r>
       </set>
       <set comment="band 2">
        <r>  0.0649  0.0886  0.7454 </r>
       </set>
       <set comment="band 3">
        <r>  0.0299  0.0167  0.8902 </r>
       </set>
       <set comment="band 4">
        <r>  0.0115  0.0264  0.9149 </r>
       </set>
       <set comment="band 5">
        <r>  0.0106  0.0282  0.9187 </r>
       </set>
       <set comment="band 6">
        <r>  0.1339  0.1310  0.6542 </r>
       </set>
       <set comment="band 7">
        <r>  0.1603  0.3173  0.2354 </r>
       </set>
       <set comment="band 8">
        <r>  0.0495  0.3688  0.2667 </r>
       </set>
       <set comment="band 9">
        <r>  0.0593  0.2141  0.2173 </r>
       </set>
      </set>
      <set comment="kpoint 41">
       <set comment="band 1">
        <r>  0.0584  0.0814  0.7692 </r>
       </set>
       <set comment="band 2">
        <r>  0.0013  0.0361  0.8720 </r>
       </set>
       <set comment="band 3">
        <r>  0.0543  0.1039  0.7540 </r>
       </set>
       <set comment="band 4">
        <r>  0.0006  0.0320  0.9180 </r>
       </set>
       <set comment="band 5">
        <r>  0.0001  0.0088  0.9602 </r>
       </set>
       <set comment="band 6">
        <r>  0.1913  0.2573  0.4144 </r>
       </set>
       <set comment="band 7">
        <r>  0.1804  0.3490  0.2563 </r>
       </set>
       <set comment="band 8">
        <r>  0.1505  0.3447  0.2263 </r>
       </set>
       <set comment="band 9">
        <r>  0.0697  0.2754  0.2682 </r>
       </set>
      </set>
      <set comment="kpoint 42">
       <set comment="band 1">
        <r>  0.0448  0.0406  0.8304 </r>
       </set>
       <set comment="band 2">
        <r>  0.0099  0.0694  0.8227 </r>
       </set>
       <set comment="band 3">
        <r>  0.0088  0.1182  0.7936 </r>
       </set>
       <set comment="band 4">
        <r>  0.0013  0.0194  0.9321 </r>
       </set>
       <set comment="band 5">
        <r>  0.0034  0.0008  0.9716 </r>
       </set>
       <set comment="band 6">
        <r>  0.0420  0.4643  0.3102 </r>
       </set>
       <set comment="band 7">
        <r>  0.3769  0.1866  0.2640 </r>
       </set>
       <set comment="band 8">
        <r>  0.1595  0.3189  0.2345 </r>
       </set>
       <set comment="band 9">
        <r>  0.0509  0.3531  0.2580 </r>
       </set>
      </set>
      <set comment="kpoint 43">
       <set comment="band 1">
        <r>  0.0638  0.0515  0.7846 </r>
       </set>
       <set comment="band 2">
        <r>  0.0189  0.0630  0.8242 </r>
       </set>
       <set comment="band 3">
        <r>  0.0754  0.0710  0.7749 </r>
       </set>
       <set comment="band 4">
        <r>  0.0063  0.0366  0.9113 </r>
       </set>
       <set comment="band 5">
        <r>  0.0010  0.0178  0.9495 </r>
       </set>
       <set comment="band 6">
        <r>  0.1710  0.2398  0.4706 </r>
       </set>
       <set comment="band 7">
        <r>  0.1745  0.3565  0.2061 </r>
       </set>
       <set comment="band 8">
        <r>  0.0815  0.4165  0.2065 </r>
       </set>
       <set comment="band 9">
        <r>  0.0917  0.2394  0.2983 </r>
       </set>
      </set>
      <set comment="kpoint 44">
       <set comment="band 1">
        <r>  0.0841  0.0275  0.7912 </r>
       </set>
       <set comment="band 2">
        <r>  0.0192  0.0624  0.8212 </r>
       </set>
       <set comment="band 3">
        <r>  0.0827  0.0999  0.7336 </r>
       </set>
       <set comment="band 4">
        <r>  0.0000  0.0124  0.9480 </r>
       </set>
       <set comment="band 5">
        <r>  0.0000  0.0009  0.9816 </r>
       </set>
       <set comment="band 6">
        <r>  0.1553  0.2692  0.4482 </r>
       </set>
       <set comment="band 7">
        <r>  0.1867  0.3539  0.1959 </r>
       </set>
       <set comment="band 8">
        <r>  0.0897  0.2194  0.3152 </r>
       </set>
       <set comment="band 9">
        <r>  0.0000  0.5325  0.1189 </r>
       </set>
      </set>
      <set comment="kpoint 45">
       <set comment="band 1">
        <r>  0.0366  0.0362  0.8182 </r>
       </set>
       <set comment="band 2">
        <r>  0.0014  0.0502  0.8734 </r>
       </set>
       <set comment="band 3">
        <r>  0.0408  0.0983  0.7847 </r>
       </set>
       <set comment="band 4">
        <r>  0.0000  0.0310  0.9275 </r>
       </set>
       <set comment="band 5">
        <r>  0.0004  0.0061  0.9702 </r>
       </set>
       <set comment="band 6">
        <r>  0.1454  0.3686  0.3368 </r>
       </set>
       <set comment="band 7">
        <r>  0.1957  0.3806  0.1641 </r>
       </set>
       <set comment="band 8">
        <r>  0.2394  0.3550  0.1530 </r>
       </set>
       <set comment="band 9">
        <r>  0.0104  0.3164  0.3506 </r>
       </set>
      </set>
      <set comment="kpoint 46">
       <set comment="band 1">
        <r>  0.0046  0.0524  0.8274 </r>
       </set>
       <set comment="band 2">
        <r>  0.0027  0.0743  0.8531 </r>
       </set>
       <set comment="band 3">
        <r>  0.0050  0.1005  0.8224 </r>
       </set>
       <set comment="band 4">
        <r>  0.0187  0.0055  0.9260 </r>
       </set>
       <set comment="band 5">
        <r>  0.0002  0.0016  0.9800 </r>
       </set>
       <set comment="band 6">
        <r>  0.0649  0.4990  0.2542 </r>
       </set>
       <set comment="band 7">
        <r>  0.1517  0.4236  0.2125 </r>
       </set>
       <set comment="band 8">
        <r>  0.4279  0.1768  0.1679 </r>
       </set>
       <set comment="band 9">
        <r>  0.0173  0.3325  0.3540 </r>
       </set>
      </set>
      <set comment="kpoint 47">
       <set comment="band 1">
        <r>  0.0080  0.0558  0.8237 </r>
       </set>
       <set comment="band 2">
        <r>  0.0088  0.0701  0.8497 </r>
       </set>
       <set comment="band 3">
        <r>  0.0342  0.0943  0.7934 </r>
       </set>
       <set comment="band 4">
        <r>  0.0045  0.0211  0.9266 </r>
       </set>
       <set comment="band 5">
        <r>  0.0009  0.0052  0.9699 </r>
       </set>
       <set comment="band 6">
        <r>  0.1655  0.3550  0.3151 </r>
       </set>
       <set comment="band 7">
        <r>  0.1631  0.3934  0.2347 </r>
       </set>
       <set comment="band 8">
        <r>  0.2363  0.3183  0.1810 </r>
       </set>
       <set comment="band 9">
        <r>  0.0765  0.2944  0.3229 </r>
       </set>
      </set>
      <set comment="kpoint 48">
       <set comment="band 1">
        <r>  0.0380  0.0036  0.8577 </r>
       </set>
       <set comment="band 2">
        <r>  0.0016  0.0506  0.8677 </r>
       </set>
       <set comment="band 3">
        <r>  0.0048  0.1340  0.7917 </r>
       </set>
       <set comment="band 4">
        <r>  0.0000  0.0100  0.9568 </r>
       </set>
       <set comment="band 5">
        <r>  0.0000  0.0000  0.9799 </r>
       </set>
       <set comment="band 6">
        <r>  0.0316  0.5479  0.2480 </r>
       </set>
       <set comment="band 7">
        <r>  0.2836  0.3405  0.0993 </r>
       </set>
       <set comment="band 8">
        <r>  0.2523  0.1590  0.3803 </r>
       </set>
       <set comment="band 9">
        <r>  0.0000  0.5696  0.0711 </r>
       </set>
      </set>
      <set comment="kpoint 49">
       <set comment="band 1">
        <r>  0.0262  0.0292  0.8313 </r>
       </set>
       <set comment="band 2">
        <r>  0.0001  0.0475  0.8837 </r>
       </set>
       <set comment="band 3">
        <r>  0.0060  0.1192  0.8035 </r>
       </set>
       <set comment="band 4">
        <r>  0.0065  0.0124  0.9406 </r>
       </set>
       <set comment="band 5">
        <r>  0.0002  0.0015  0.9803 </r>
       </set>
       <set comment="band 6">
        <r>  0.0414  0.5361  0.2486 </r>
       </set>
       <set comment="band 7">
        <r>  0.3111  0.3153  0.1202 </r>
       </set>
       <set comment="band 8">
        <r>  0.2289  0.2216  0.3304 </r>
       </set>
       <set comment="band 9">
        <r>  0.0422  0.4347  0.2064 </r>
       </set>
      </set>
      <set comment="kpoint 50">
       <set comment="band 1">
        <r>  0.0494  0.0107  0.8434 </r>
       </set>
       <set comment="band 2">
        <r>  0.0052  0.0536  0.8539 </r>
       </set>
       <set comment="band 3">
        <r>  0.0387  0.1245  0.7594 </r>
       </set>
       <set comment="band 4">
        <r>  0.0000  0.0115  0.9513 </r>
       </set>
       <set comment="band 5">
        <r>  0.0000  0.0001  0.9824 </r>
       </set>
       <set comment="band 6">
        <r>  0.1247  0.3929  0.3320 </r>
       </set>
       <set comment="band 7">
        <r>  0.2223  0.3654  0.1411 </r>
       </set>
       <set comment="band 8">
        <r>  0.1748  0.2247  0.3395 </r>
       </set>
       <set comment="band 9">
        <r>  0.0000  0.5567  0.0876 </r>
       </set>
      </set>
      <set comment="kpoint 51">
       <set comment="band 1">
        <r>  0.3283  0.0410  0.4924 </r>
       </set>
       <set comment="band 2">
        <r>  0.0000  0.0011  0.9601 </r>
       </set>
       <set comment="band 3">
        <r>  0.0000  0.0011  0.9601 </r>
       </set>
       <set comment="band 4">
        <r>  0.1764  0.2616  0.3900 </r>
       </set>
       <set comment="band 5">
        <r>  0.0000  0.0025  0.9677 </r>
       </set>
       <set comment="band 6">
        <r>  0.0000  0.0025  0.9677 </r>
       </set>
       <set comment="band 7">
        <r>  0.1957  0.2584  0.2833 </r>
       </set>
       <set comment="band 8">
        <r>  0.0008  0.0223  0.0549 </r>
       </set>
       <set comment="band 9">
        <r>  0.0000  0.9620  0.0006 </r>
       </set>
      </set>
      <set comment="kpoint 52">
       <set comment="band 1">
        <r>  0.2148  0.0466  0.6272 </r>
       </set>
       <set comment="band 2">
        <r>  0.0032  0.0074  0.9401 </r>
       </set>
       <set comment="band 3">
        <r>  0.0000  0.0013  0.9556 </r>
       </set>
       <set comment="band 4">
        <r>  0.0941  0.2132  0.5495 </r>
       </set>
       <set comment="band 5">
        <r>  0.0000  0.0026  0.9636 </r>
       </set>
       <set comment="band 6">
        <r>  0.1061  0.1353  0.6759 </r>
       </set>
       <set comment="band 7">
        <r>  0.2369  0.2564  0.2865 </r>
       </set>
       <set comment="band 8">
        <r>  0.0218  0.2047  0.2288 </r>
       </set>
       <set comment="band 9">
        <r>  0.0346  0.2976  0.0161 </r>
       </set>
      </set>
      <set comment="kpoint 53">
       <set comment="band 1">
        <r>  0.0945  0.0385  0.7875 </r>
       </set>
       <set comment="band 2">
        <r>  0.0079  0.0747  0.8266 </r>
       </set>
       <set comment="band 3">
        <r>  0.0270  0.1553  0.7103 </r>
       </set>
       <set comment="band 4">
        <r>  0.0000  0.0092  0.9435 </r>
       </set>
       <set comment="band 5">
        <r>  0.0000  0.0007  0.9664 </r>
       </set>
       <set comment="band 6">
        <r>  0.2003  0.2232  0.4420 </r>
       </set>
       <set comment="band 7">
        <r>  0.1787  0.3357  0.2881 </r>
       </set>
       <set comment="band 8">
        <r>  0.1616  0.3109  0.2487 </r>
       </set>
       <set comment="band 9">
        <r>  0.0476  0.1099  0.1441 </r>
       </set>
      </set>
      <set comment="kpoint 54">
       <set comment="band 1">
        <r>  0.0383  0.0021  0.8793 </r>
       </set>
       <set comment="band 2">
        <r>  0.0045  0.1189  0.7696 </r>
       </set>
       <set comment="band 3">
        <r>  0.0020  0.1247  0.7993 </r>
       </set>
       <set comment="band 4">
        <r>  0.0000  0.0127  0.9434 </r>
       </set>
       <set comment="band 5">
        <r>  0.0000  0.0003  0.9732 </r>
       </set>
       <set comment="band 6">
        <r>  0.1761  0.3595  0.2543 </r>
       </set>
       <set comment="band 7">
        <r>  0.1434  0.4060  0.2901 </r>
       </set>
       <set comment="band 8">
        <r>  0.2841  0.1903  0.2799 </r>
       </set>
       <set comment="band 9">
        <r>  0.0000  0.5246  0.1508 </r>
       </set>
      </set>
      <set comment="kpoint 55">
       <set comment="band 1">
        <r>  0.1686  0.0280  0.7066 </r>
       </set>
       <set comment="band 2">
        <r>  0.0001  0.0143  0.9228 </r>
       </set>
       <set comment="band 3">
        <r>  0.0000  0.0058  0.9522 </r>
       </set>
       <set comment="band 4">
        <r>  0.0588  0.1712  0.6566 </r>
       </set>
       <set comment="band 5">
        <r>  0.0000  0.0006  0.9802 </r>
       </set>
       <set comment="band 6">
        <r>  0.1085  0.2782  0.4753 </r>
       </set>
       <set comment="band 7">
        <r>  0.3085  0.2096  0.2969 </r>
       </set>
       <set comment="band 8">
        <r>  0.0022  0.0574  0.1477 </r>
       </set>
       <set comment="band 9">
        <r>  0.0000  0.4997  0.1358 </r>
       </set>
      </set>
      <set comment="kpoint 56">
       <set comment="band 1">
        <r>  0.0956  0.0522  0.7668 </r>
       </set>
       <set comment="band 2">
        <r>  0.0003  0.0309  0.8819 </r>
       </set>
       <set comment="band 3">
        <r>  0.0216  0.1346  0.7533 </r>
       </set>
       <set comment="band 4">
        <r>  0.0012  0.0268  0.9226 </r>
       </set>
       <set comment="band 5">
        <r>  0.0007  0.0054  0.9677 </r>
       </set>
       <set comment="band 6">
        <r>  0.1198  0.3444  0.3792 </r>
       </set>
       <set comment="band 7">
        <r>  0.3239  0.2173  0.2816 </r>
       </set>
       <set comment="band 8">
        <r>  0.0582  0.3386  0.2398 </r>
       </set>
       <set comment="band 9">
        <r>  0.0823  0.2987  0.2218 </r>
       </set>
      </set>
      <set comment="kpoint 57">
       <set comment="band 1">
        <r>  0.0136  0.0276  0.8616 </r>
       </set>
       <set comment="band 2">
        <r>  0.0173  0.1030  0.7891 </r>
       </set>
       <set comment="band 3">
        <r>  0.0011  0.1055  0.8211 </r>
       </set>
       <set comment="band 4">
        <r>  0.0083  0.0113  0.9328 </r>
       </set>
       <set comment="band 5">
        <r>  0.0009  0.0036  0.9716 </r>
       </set>
       <set comment="band 6">
        <r>  0.1609  0.3769  0.2627 </r>
       </set>
       <set comment="band 7">
        <r>  0.1432  0.4155  0.2679 </r>
       </set>
       <set comment="band 8">
        <r>  0.2862  0.2179  0.2474 </r>
       </set>
       <set comment="band 9">
        <r>  0.0622  0.3693  0.2541 </r>
       </set>
      </set>
      <set comment="kpoint 58">
       <set comment="band 1">
        <r>  0.0628  0.0183  0.8399 </r>
       </set>
       <set comment="band 2">
        <r>  0.0022  0.0878  0.8059 </r>
       </set>
       <set comment="band 3">
        <r>  0.0153  0.1266  0.7789 </r>
       </set>
       <set comment="band 4">
        <r>  0.0000  0.0108  0.9448 </r>
       </set>
       <set comment="band 5">
        <r>  0.0000  0.0003  0.9774 </r>
       </set>
       <set comment="band 6">
        <r>  0.0146  0.4896  0.3095 </r>
       </set>
       <set comment="band 7">
        <r>  0.4186  0.1413  0.2721 </r>
       </set>
       <set comment="band 8">
        <r>  0.1348  0.2807  0.2767 </r>
       </set>
       <set comment="band 9">
        <r>  0.0000  0.5212  0.1422 </r>
       </set>
      </set>
      <set comment="kpoint 59">
       <set comment="band 1">
        <r>  0.1852  0.0031  0.7194 </r>
       </set>
       <set comment="band 2">
        <r>  0.0000  0.0001  0.9583 </r>
       </set>
       <set comment="band 3">
        <r>  0.0000  0.0001  0.9583 </r>
       </set>
       <set comment="band 4">
        <r>  0.0000  0.0006  0.9780 </r>
       </set>
       <set comment="band 5">
        <r>  0.0000  0.0006  0.9780 </r>
       </set>
       <set comment="band 6">
        <r>  0.0760  0.5923  0.0634 </r>
       </set>
       <set comment="band 7">
        <r>  0.4172  0.0916  0.3618 </r>
       </set>
       <set comment="band 8">
        <r>  0.0000  0.0288  0.0060 </r>
       </set>
       <set comment="band 9">
        <r>  0.0000  0.5396  0.0199 </r>
       </set>
      </set>
      <set comment="kpoint 60">
       <set comment="band 1">
        <r>  0.1454  0.0221  0.7450 </r>
       </set>
       <set comment="band 2">
        <r>  0.0001  0.0105  0.9293 </r>
       </set>
       <set comment="band 3">
        <r>  0.0000  0.0033  0.9527 </r>
       </set>
       <set comment="band 4">
        <r>  0.0011  0.1956  0.6985 </r>
       </set>
       <set comment="band 5">
        <r>  0.0000  0.0006  0.9768 </r>
       </set>
       <set comment="band 6">
        <r>  0.0171  0.4670  0.3206 </r>
       </set>
       <set comment="band 7">
        <r>  0.4742  0.0423  0.3687 </r>
       </set>
       <set comment="band 8">
        <r>  0.0123  0.1307  0.1672 </r>
       </set>
       <set comment="band 9">
        <r>  0.0502  0.3573  0.0480 </r>
       </set>
      </set>
     </set>
    </set>
   </array>
  </projected>
 </calculation>
 <structure name="finalpos" >
  <crystal>
   <varray name="basis" >
    <v>       0.00000000       1.95000000       1.95000000 </v>
    <v>       1.95000000       0.00000000       1.95000000 </v>
    <v>       1.95000000       1.95000000       0.00000000 </v>
   </varray>
   <i name="volume">     14.82975000 </i>
   <varray name="rec_basis" >
    <v>      -0.25641026       0.25641026       0.25641026 </v>
    <v>       0.25641026      -0.25641026       0.25641026 </v>
    <v>       0.25641026       0.25641026      -0.25641026 </v>
   </varray>
  </crystal>
  <varray name="positions" >
   <v>       0.00000000       0.00000000       0.00000000 </v>
  </varray>
 </structure>
</modeling>
