<?xml version="1.0" encoding="ISO-8859-1"?>
<modeling>
 <generator>
  <i name="program" type="string">vasp </i>
  <i name="version" type="string">5.2.12  </i>
  <i name="subversion" type="string">11Nov11 complex                                                      serial </i>
  <i name="platform" type="string">LinuxIFC </i>
  <i name="date" type="string">2012 07 18 </i>
  <i name="time" type="string">20:08:28 </i>
 </generator>
 <incar>
  <i type="string" name="PREC">normal</i>
  <i name="ENCUT">    300.00000000</i>
  <v name="RWIGS">      1.50000000</v>
  <i type="logical" name="LREAL"> F  </i>
  <i type="int" name="ISMEAR">    -5</i>
 </incar>
 <kpoints>
  <generation param="Monkhorst-Pack">
   <v type="int" name="divisions">       8        8        8 </v>
   <v name="usershift">      0.00000000       0.00000000       0.00000000 </v>
   <v name="genvec1">      0.12500000       0.00000000       0.00000000 </v>
   <v name="genvec2">      0.00000000       0.12500000       0.00000000 </v>
   <v name="genvec3">      0.00000000       0.00000000       0.12500000 </v>
   <v name="shift">      0.50000000       0.50000000       0.50000000 </v>
  </generation>
  <varray name="kpointlist" >
   <v>       0.06250000       0.06250000       0.06250000 </v>
   <v>       0.18750000       0.06250000       0.06250000 </v>
   <v>       0.31250000       0.06250000       0.06250000 </v>
   <v>       0.43750000       0.06250000       0.06250000 </v>
   <v>      -0.43750000       0.06250000       0.06250000 </v>
   <v>      -0.31250000       0.06250000       0.06250000 </v>
   <v>      -0.18750000       0.06250000       0.06250000 </v>
   <v>      -0.06250000       0.06250000       0.06250000 </v>
   <v>       0.18750000       0.18750000       0.06250000 </v>
   <v>       0.31250000       0.18750000       0.06250000 </v>
   <v>       0.43750000       0.18750000       0.06250000 </v>
   <v>      -0.43750000       0.18750000       0.06250000 </v>
   <v>      -0.31250000       0.18750000       0.06250000 </v>
   <v>      -0.18750000       0.18750000       0.06250000 </v>
   <v>      -0.06250000       0.18750000       0.06250000 </v>
   <v>       0.31250000       0.31250000       0.06250000 </v>
   <v>       0.43750000       0.31250000       0.06250000 </v>
   <v>      -0.43750000       0.31250000       0.06250000 </v>
   <v>      -0.31250000       0.31250000       0.06250000 </v>
   <v>      -0.18750000       0.31250000       0.06250000 </v>
   <v>      -0.06250000       0.31250000       0.06250000 </v>
   <v>       0.43750000       0.43750000       0.06250000 </v>
   <v>      -0.43750000       0.43750000       0.06250000 </v>
   <v>      -0.31250000       0.43750000       0.06250000 </v>
   <v>      -0.18750000       0.43750000       0.06250000 </v>
   <v>      -0.06250000       0.43750000       0.06250000 </v>
   <v>      -0.43750000      -0.43750000       0.06250000 </v>
   <v>      -0.31250000      -0.43750000       0.06250000 </v>
   <v>      -0.18750000      -0.43750000       0.06250000 </v>
   <v>      -0.31250000      -0.31250000       0.06250000 </v>
   <v>      -0.18750000      -0.31250000       0.06250000 </v>
   <v>      -0.18750000      -0.18750000       0.06250000 </v>
   <v>       0.18750000       0.18750000       0.18750000 </v>
   <v>       0.31250000       0.18750000       0.18750000 </v>
   <v>       0.43750000       0.18750000       0.18750000 </v>
   <v>      -0.43750000       0.18750000       0.18750000 </v>
   <v>      -0.31250000       0.18750000       0.18750000 </v>
   <v>      -0.18750000       0.18750000       0.18750000 </v>
   <v>       0.31250000       0.31250000       0.18750000 </v>
   <v>       0.43750000       0.31250000       0.18750000 </v>
   <v>      -0.43750000       0.31250000       0.18750000 </v>
   <v>      -0.31250000       0.31250000       0.18750000 </v>
   <v>      -0.18750000       0.31250000       0.18750000 </v>
   <v>       0.43750000       0.43750000       0.18750000 </v>
   <v>      -0.43750000       0.43750000       0.18750000 </v>
   <v>      -0.31250000       0.43750000       0.18750000 </v>
   <v>      -0.18750000       0.43750000       0.18750000 </v>
   <v>      -0.43750000      -0.43750000       0.18750000 </v>
   <v>      -0.31250000      -0.43750000       0.18750000 </v>
   <v>      -0.31250000      -0.31250000       0.18750000 </v>
   <v>       0.31250000       0.31250000       0.31250000 </v>
   <v>       0.43750000       0.31250000       0.31250000 </v>
   <v>      -0.43750000       0.31250000       0.31250000 </v>
   <v>      -0.31250000       0.31250000       0.31250000 </v>
   <v>       0.43750000       0.43750000       0.31250000 </v>
   <v>      -0.43750000       0.43750000       0.31250000 </v>
   <v>      -0.31250000       0.43750000       0.31250000 </v>
   <v>      -0.43750000      -0.43750000       0.31250000 </v>
   <v>       0.43750000       0.43750000       0.43750000 </v>
   <v>      -0.43750000       0.43750000       0.43750000 </v>
  </varray>
  <varray name="weights" >
   <v>       0.00390625 </v>
   <v>       0.01171875 </v>
   <v>       0.01171875 </v>
   <v>       0.01171875 </v>
   <v>       0.01171875 </v>
   <v>       0.01171875 </v>
   <v>       0.01171875 </v>
   <v>       0.01171875 </v>
   <v>       0.01171875 </v>
   <v>       0.02343750 </v>
   <v>       0.02343750 </v>
   <v>       0.02343750 </v>
   <v>       0.02343750 </v>
   <v>       0.02343750 </v>
   <v>       0.02343750 </v>
   <v>       0.01171875 </v>
   <v>       0.02343750 </v>
   <v>       0.02343750 </v>
   <v>       0.02343750 </v>
   <v>       0.02343750 </v>
   <v>       0.02343750 </v>
   <v>       0.01171875 </v>
   <v>       0.02343750 </v>
   <v>       0.02343750 </v>
   <v>       0.02343750 </v>
   <v>       0.02343750 </v>
   <v>       0.01171875 </v>
   <v>       0.02343750 </v>
   <v>       0.02343750 </v>
   <v>       0.01171875 </v>
   <v>       0.02343750 </v>
   <v>       0.01171875 </v>
   <v>       0.00390625 </v>
   <v>       0.01171875 </v>
   <v>       0.01171875 </v>
   <v>       0.01171875 </v>
   <v>       0.01171875 </v>
   <v>       0.01171875 </v>
   <v>       0.01171875 </v>
   <v>       0.02343750 </v>
   <v>       0.02343750 </v>
   <v>       0.02343750 </v>
   <v>       0.02343750 </v>
   <v>       0.01171875 </v>
   <v>       0.02343750 </v>
   <v>       0.02343750 </v>
   <v>       0.02343750 </v>
   <v>       0.01171875 </v>
   <v>       0.02343750 </v>
   <v>       0.01171875 </v>
   <v>       0.00390625 </v>
   <v>       0.01171875 </v>
   <v>       0.01171875 </v>
   <v>       0.01171875 </v>
   <v>       0.01171875 </v>
   <v>       0.02343750 </v>
   <v>       0.02343750 </v>
   <v>       0.01171875 </v>
   <v>       0.00390625 </v>
   <v>       0.01171875 </v>
  </varray>
  <varray name="tetrahedronlist"  type="int" >
   <v type="int" >       24        1        2        8       33 </v>
   <v type="int" >       24        2        7        8       15 </v>
   <v type="int" >       24        7        8        9       15 </v>
   <v type="int" >       24        2        7        8       33 </v>
   <v type="int" >       24        9       10       15       39 </v>
   <v type="int" >       24        9       10       32       39 </v>
   <v type="int" >       24        7        9       15       39 </v>
   <v type="int" >       24       10       31       32       38 </v>
   <v type="int" >       24       16       31       32       38 </v>
   <v type="int" >       24       10       32       38       39 </v>
   <v type="int" >       24       16       17       31       44 </v>
   <v type="int" >       24       16       17       30       44 </v>
   <v type="int" >       24       16       31       38       44 </v>
   <v type="int" >       24       17       28       30       50 </v>
   <v type="int" >       24       22       28       30       50 </v>
   <v type="int" >       24       17       30       44       50 </v>
   <v type="int" >       24       22       23       28       48 </v>
   <v type="int" >       24       22       23       27       48 </v>
   <v type="int" >       24       22       28       48       50 </v>
   <v type="int" >       24       23       23       27       48 </v>
   <v type="int" >       24       23       27       27       48 </v>
   <v type="int" >       24       23       27       48       48 </v>
   <v type="int" >       24       23       27       28       50 </v>
   <v type="int" >       24       22       27       28       50 </v>
   <v type="int" >       24       23       27       48       50 </v>
   <v type="int" >       24       17       22       28       44 </v>
   <v type="int" >       24       17       22       30       44 </v>
   <v type="int" >       24       22       28       44       50 </v>
   <v type="int" >       24       17       30       31       38 </v>
   <v type="int" >       24       16       30       31       38 </v>
   <v type="int" >       24       17       30       38       44 </v>
   <v type="int" >       24       10       16       31       39 </v>
   <v type="int" >       24       10       16       32       39 </v>
   <v type="int" >       24       16       31       38       39 </v>
   <v type="int" >       24        7       10       15       32 </v>
   <v type="int" >       24        7        9       15       32 </v>
   <v type="int" >       24        7       10       32       39 </v>
   <v type="int" >       24        2        9       15       33 </v>
   <v type="int" >       24        2        8        9       33 </v>
   <v type="int" >       24        7        9       15       33 </v>
   <v type="int" >       36        2        2        8        8 </v>
   <v type="int" >       48        1        2        8        8 </v>
   <v type="int" >       24        2        2        8       33 </v>
   <v type="int" >       24        1        1        2        8 </v>
   <v type="int" >       24        1        2        2        8 </v>
   <v type="int" >       24        2        3       15       34 </v>
   <v type="int" >       24        2        3        7       15 </v>
   <v type="int" >       24        2        3        7       33 </v>
   <v type="int" >       24       14       15       21       34 </v>
   <v type="int" >       24       10       14       15       21 </v>
   <v type="int" >       24       10       15       21       39 </v>
   <v type="int" >       24        3       15       21       34 </v>
   <v type="int" >       24        3        7       15       21 </v>
   <v type="int" >       24        7       15       21       39 </v>
   <v type="int" >       24       10       11       14       40 </v>
   <v type="int" >       24       10       11       31       40 </v>
   <v type="int" >       24       10       11       31       38 </v>
   <v type="int" >       24       10       11       14       21 </v>
   <v type="int" >       24       10       11       21       39 </v>
   <v type="int" >       24       10       11       38       39 </v>
   <v type="int" >       24       29       31       40       43 </v>
   <v type="int" >       24       17       29       31       43 </v>
   <v type="int" >       24       17       29       31       44 </v>
   <v type="int" >       24       11       29       31       40 </v>
   <v type="int" >       24       11       29       31       38 </v>
   <v type="int" >       24       29       31       38       44 </v>
   <v type="int" >       24       17       18       43       45 </v>
   <v type="int" >       24       17       18       28       45 </v>
   <v type="int" >       24       17       18       28       50 </v>
   <v type="int" >       24       17       18       29       43 </v>
   <v type="int" >       24       17       18       29       44 </v>
   <v type="int" >       24       17       18       44       50 </v>
   <v type="int" >       24       24       28       45       49 </v>
   <v type="int" >       24       23       24       28       49 </v>
   <v type="int" >       24       23       24       28       48 </v>
   <v type="int" >       24       18       24       28       45 </v>
   <v type="int" >       24       18       24       28       50 </v>
   <v type="int" >       24       24       28       48       50 </v>
   <v type="int" >       24       23       24       49       49 </v>
   <v type="int" >       24       23       23       24       49 </v>
   <v type="int" >       24       23       23       24       48 </v>
   <v type="int" >       24       23       24       24       49 </v>
   <v type="int" >       24       23       24       24       48 </v>
   <v type="int" >       24       23       24       48       48 </v>
   <v type="int" >       24       18       23       45       49 </v>
   <v type="int" >       24       18       23       28       45 </v>
   <v type="int" >       24       18       23       28       50 </v>
   <v type="int" >       24       18       23       24       49 </v>
   <v type="int" >       24       18       23       24       48 </v>
   <v type="int" >       24       18       23       48       50 </v>
   <v type="int" >       24       28       29       43       45 </v>
   <v type="int" >       24       17       28       29       43 </v>
   <v type="int" >       24       17       28       29       44 </v>
   <v type="int" >       24       18       28       29       45 </v>
   <v type="int" >       24       18       28       29       50 </v>
   <v type="int" >       24       28       29       44       50 </v>
   <v type="int" >       24       11       17       40       43 </v>
   <v type="int" >       24       11       17       31       40 </v>
   <v type="int" >       24       11       17       31       38 </v>
   <v type="int" >       24       11       17       29       43 </v>
   <v type="int" >       24       11       17       29       44 </v>
   <v type="int" >       24       11       17       38       44 </v>
   <v type="int" >       24       14       21       31       40 </v>
   <v type="int" >       24       10       14       21       31 </v>
   <v type="int" >       24       10       21       31       39 </v>
   <v type="int" >       24       11       21       31       40 </v>
   <v type="int" >       24       11       21       31       38 </v>
   <v type="int" >       24       21       31       38       39 </v>
   <v type="int" >       24        3       10       14       34 </v>
   <v type="int" >       24        3       10       15       34 </v>
   <v type="int" >       24        3        7       10       15 </v>
   <v type="int" >       24        3       10       14       21 </v>
   <v type="int" >       24        3       10       21       39 </v>
   <v type="int" >       24        3        7       10       39 </v>
   <v type="int" >       24        7       15       15       34 </v>
   <v type="int" >       48        2        7       15       15 </v>
   <v type="int" >       48        2        7       15       33 </v>
   <v type="int" >       24        3        7       15       34 </v>
   <v type="int" >       24        3        7        7       15 </v>
   <v type="int" >       24        7        7       15       33 </v>
   <v type="int" >       48        2        9       15       15 </v>
   <v type="int" >       24        2        8        9       15 </v>
   <v type="int" >       48        2        2        8       15 </v>
   <v type="int" >       24        2        2       15       33 </v>
   <v type="int" >       24        8        9        9       15 </v>
   <v type="int" >       24        8        8        9       15 </v>
   <v type="int" >       24        2        8        8       15 </v>
   <v type="int" >       24        8        9       15       15 </v>
   <v type="int" >       24        2        8       15       15 </v>
   <v type="int" >       24       14       34       35       52 </v>
   <v type="int" >       24       14       21       34       52 </v>
   <v type="int" >       24        3       21       34       52 </v>
   <v type="int" >       24       13       14       20       35 </v>
   <v type="int" >       24       13       14       20       40 </v>
   <v type="int" >       24       11       13       14       40 </v>
   <v type="int" >       24       13       14       35       52 </v>
   <v type="int" >       24       13       14       21       52 </v>
   <v type="int" >       24       11       13       14       21 </v>
   <v type="int" >       24       20       40       41       56 </v>
   <v type="int" >       24       40       41       43       56 </v>
   <v type="int" >       24       29       40       43       56 </v>
   <v type="int" >       24       13       20       40       56 </v>
   <v type="int" >       24       11       13       40       56 </v>
   <v type="int" >       24       11       29       40       56 </v>
   <v type="int" >       24       41       42       43       47 </v>
   <v type="int" >       24       42       43       45       47 </v>
   <v type="int" >       24       18       42       43       45 </v>
   <v type="int" >       24       41       42       43       56 </v>
   <v type="int" >       24       29       42       43       56 </v>
   <v type="int" >       24       18       29       42       43 </v>
   <v type="int" >       24       45       46       47       57 </v>
   <v type="int" >       24       45       46       49       57 </v>
   <v type="int" >       24       24       45       49       57 </v>
   <v type="int" >       24       42       45       47       57 </v>
   <v type="int" >       24       18       42       45       57 </v>
   <v type="int" >       24       18       24       45       57 </v>
   <v type="int" >       24       46       46       49       57 </v>
   <v type="int" >       24       46       49       49       57 </v>
   <v type="int" >       24       24       49       49       57 </v>
   <v type="int" >       24       46       49       57       57 </v>
   <v type="int" >       24       24       49       57       57 </v>
   <v type="int" >       24       24       24       49       57 </v>
   <v type="int" >       24       42       46       47       49 </v>
   <v type="int" >       24       42       45       47       49 </v>
   <v type="int" >       24       18       42       45       49 </v>
   <v type="int" >       24       42       46       49       57 </v>
   <v type="int" >       24       24       42       49       57 </v>
   <v type="int" >       24       18       24       42       49 </v>
   <v type="int" >       24       41       45       47       56 </v>
   <v type="int" >       24       41       43       45       56 </v>
   <v type="int" >       24       29       43       45       56 </v>
   <v type="int" >       24       42       45       47       56 </v>
   <v type="int" >       24       18       42       45       56 </v>
   <v type="int" >       24       18       29       45       56 </v>
   <v type="int" >       24       13       20       41       43 </v>
   <v type="int" >       24       13       20       40       43 </v>
   <v type="int" >       24       11       13       40       43 </v>
   <v type="int" >       24       13       41       43       56 </v>
   <v type="int" >       24       13       29       43       56 </v>
   <v type="int" >       24       11       13       29       43 </v>
   <v type="int" >       24       20       35       40       52 </v>
   <v type="int" >       24       14       35       40       52 </v>
   <v type="int" >       24       14       21       40       52 </v>
   <v type="int" >       24       13       20       40       52 </v>
   <v type="int" >       24       11       13       40       52 </v>
   <v type="int" >       24       11       21       40       52 </v>
   <v type="int" >       24       14       14       21       35 </v>
   <v type="int" >       24       14       14       21       34 </v>
   <v type="int" >       24        3       14       21       34 </v>
   <v type="int" >       24       14       21       35       52 </v>
   <v type="int" >       24       14       21       21       52 </v>
   <v type="int" >       24        3       14       21       21 </v>
   <v type="int" >       24       10       14       34       39 </v>
   <v type="int" >       24       10       15       34       39 </v>
   <v type="int" >       24        7       15       34       39 </v>
   <v type="int" >       24       14       21       34       39 </v>
   <v type="int" >       24        3       21       34       39 </v>
   <v type="int" >       24        3        7       34       39 </v>
   <v type="int" >       48       10       10       15       32 </v>
   <v type="int" >       24        9       10       15       32 </v>
   <v type="int" >       48        9       10       15       15 </v>
   <v type="int" >       24       10       10       15       39 </v>
   <v type="int" >       24        7       10       15       39 </v>
   <v type="int" >       24        7       10       15       15 </v>
   <v type="int" >       24        9       10       32       32 </v>
   <v type="int" >       24        9        9       10       32 </v>
   <v type="int" >       24        9        9       10       15 </v>
   <v type="int" >       24        9       10       10       32 </v>
   <v type="int" >       24        9       10       10       15 </v>
   <v type="int" >       24       20       35       36       53 </v>
   <v type="int" >       24       13       20       35       36 </v>
   <v type="int" >       24       13       35       36       52 </v>
   <v type="int" >       24       19       20       25       53 </v>
   <v type="int" >       24       19       20       25       41 </v>
   <v type="int" >       24       20       25       41       56 </v>
   <v type="int" >       24       20       25       36       53 </v>
   <v type="int" >       24       13       20       25       36 </v>
   <v type="int" >       24       13       20       25       56 </v>
   <v type="int" >       24       19       41       42       57 </v>
   <v type="int" >       24       41       42       47       57 </v>
   <v type="int" >       24       41       42       42       47 </v>
   <v type="int" >       24       19       25       41       42 </v>
   <v type="int" >       24       25       41       42       56 </v>
   <v type="int" >       24       41       42       42       56 </v>
   <v type="int" >       72       46       47       47       57 </v>
   <v type="int" >       36       46       46       47       47 </v>
   <v type="int" >       24       42       47       47       57 </v>
   <v type="int" >       12       42       42       47       47 </v>
   <v type="int" >       48       46       46       46       47 </v>
   <v type="int" >       48       46       46       47       57 </v>
   <v type="int" >       72       46       47       57       57 </v>
   <v type="int" >       24       42       46       46       57 </v>
   <v type="int" >       48       42       46       47       57 </v>
   <v type="int" >       24       42       42       46       47 </v>
   <v type="int" >       24       42       46       46       47 </v>
   <v type="int" >       24       42       42       46       57 </v>
   <v type="int" >       24       19       25       47       57 </v>
   <v type="int" >       24       19       25       41       47 </v>
   <v type="int" >       24       25       41       47       56 </v>
   <v type="int" >       24       25       42       47       57 </v>
   <v type="int" >       24       25       42       42       47 </v>
   <v type="int" >       24       25       42       47       56 </v>
   <v type="int" >       24       19       36       41       53 </v>
   <v type="int" >       24       20       36       41       53 </v>
   <v type="int" >       24       13       20       36       41 </v>
   <v type="int" >       24       19       25       36       41 </v>
   <v type="int" >       24       25       36       41       56 </v>
   <v type="int" >       24       13       36       41       56 </v>
   <v type="int" >       24       13       20       20       53 </v>
   <v type="int" >       24       13       20       20       35 </v>
   <v type="int" >       24       13       20       35       52 </v>
   <v type="int" >       24       13       20       36       53 </v>
   <v type="int" >       24       13       13       20       36 </v>
   <v type="int" >       24       13       13       20       52 </v>
   <v type="int" >       24       11       20       35       40 </v>
   <v type="int" >       24       11       14       35       40 </v>
   <v type="int" >       24       11       14       21       35 </v>
   <v type="int" >       24       11       13       20       35 </v>
   <v type="int" >       24       11       13       35       52 </v>
   <v type="int" >       24       11       21       35       52 </v>
   <v type="int" >       24       14       31       38       40 </v>
   <v type="int" >       24       10       14       31       38 </v>
   <v type="int" >       24       10       14       38       39 </v>
   <v type="int" >       24       11       14       38       40 </v>
   <v type="int" >       24       11       14       21       38 </v>
   <v type="int" >       24       14       21       38       39 </v>
   <v type="int" >       48       10       16       31       31 </v>
   <v type="int" >       24       10       16       31       32 </v>
   <v type="int" >       48       10       10       31       32 </v>
   <v type="int" >       24       10       31       31       38 </v>
   <v type="int" >       24       10       31       38       39 </v>
   <v type="int" >       24       10       10       31       39 </v>
   <v type="int" >       24       16       16       31       32 </v>
   <v type="int" >       24       16       31       32       32 </v>
   <v type="int" >       24       10       31       32       32 </v>
   <v type="int" >       24       16       31       31       32 </v>
   <v type="int" >       24       10       31       31       32 </v>
   <v type="int" >       24       19       53       54       58 </v>
   <v type="int" >       24       19       25       53       58 </v>
   <v type="int" >       24       25       36       53       58 </v>
   <v type="int" >       24       18       19       24       54 </v>
   <v type="int" >       24       18       19       24       57 </v>
   <v type="int" >       24       18       19       42       57 </v>
   <v type="int" >       24       18       19       54       58 </v>
   <v type="int" >       24       18       19       25       58 </v>
   <v type="int" >       24       18       19       25       42 </v>
   <v type="int" >       24       45       46       49       49 </v>
   <v type="int" >       24       45       46       46       49 </v>
   <v type="int" >       24       45       46       46       47 </v>
   <v type="int" >       24       45       45       46       49 </v>
   <v type="int" >       24       45       45       46       47 </v>
   <v type="int" >       24       45       46       47       47 </v>
   <v type="int" >       24       18       24       46       49 </v>
   <v type="int" >       24       18       24       46       57 </v>
   <v type="int" >       24       18       42       46       57 </v>
   <v type="int" >       24       18       45       46       49 </v>
   <v type="int" >       24       18       45       46       47 </v>
   <v type="int" >       24       18       42       46       47 </v>
   <v type="int" >       24       24       54       57       58 </v>
   <v type="int" >       24       19       54       57       58 </v>
   <v type="int" >       24       19       25       57       58 </v>
   <v type="int" >       24       18       24       57       58 </v>
   <v type="int" >       24       18       42       57       58 </v>
   <v type="int" >       24       25       42       57       58 </v>
   <v type="int" >       24       19       19       25       54 </v>
   <v type="int" >       24       19       19       25       53 </v>
   <v type="int" >       24       19       25       36       53 </v>
   <v type="int" >       24       19       25       54       58 </v>
   <v type="int" >       24       19       25       25       58 </v>
   <v type="int" >       24       19       25       25       36 </v>
   <v type="int" >       24       19       41       53       56 </v>
   <v type="int" >       24       20       41       53       56 </v>
   <v type="int" >       24       13       20       53       56 </v>
   <v type="int" >       24       19       25       53       56 </v>
   <v type="int" >       24       25       36       53       56 </v>
   <v type="int" >       24       13       36       53       56 </v>
   <v type="int" >       24       20       29       41       43 </v>
   <v type="int" >       24       20       29       40       43 </v>
   <v type="int" >       24       11       20       29       40 </v>
   <v type="int" >       24       20       29       41       56 </v>
   <v type="int" >       24       13       20       29       56 </v>
   <v type="int" >       24       11       13       20       29 </v>
   <v type="int" >       24       17       40       43       44 </v>
   <v type="int" >       24       17       31       40       44 </v>
   <v type="int" >       24       31       38       40       44 </v>
   <v type="int" >       24       29       40       43       44 </v>
   <v type="int" >       24       11       29       40       44 </v>
   <v type="int" >       24       11       38       40       44 </v>
   <v type="int" >       48       17       17       30       31 </v>
   <v type="int" >       24       16       17       30       31 </v>
   <v type="int" >       48       16       17       31       31 </v>
   <v type="int" >       24       17       17       31       44 </v>
   <v type="int" >       24       17       31       38       44 </v>
   <v type="int" >       24       17       31       31       38 </v>
   <v type="int" >       24       16       17       30       30 </v>
   <v type="int" >       24       16       16       17       30 </v>
   <v type="int" >       24       16       16       17       31 </v>
   <v type="int" >       24       16       17       17       30 </v>
   <v type="int" >       24       16       17       17       31 </v>
   <v type="int" >       24       24       48       50       54 </v>
   <v type="int" >       24       18       24       50       54 </v>
   <v type="int" >       24       18       50       54       58 </v>
   <v type="int" >       24       23       23       28       49 </v>
   <v type="int" >       24       23       28       49       49 </v>
   <v type="int" >       24       28       45       49       49 </v>
   <v type="int" >       24       23       28       28       49 </v>
   <v type="int" >       24       28       28       45       49 </v>
   <v type="int" >       24       28       45       45       49 </v>
   <v type="int" >       24       23       48       49       50 </v>
   <v type="int" >       24       24       48       49       50 </v>
   <v type="int" >       24       18       24       49       50 </v>
   <v type="int" >       24       23       28       49       50 </v>
   <v type="int" >       24       28       45       49       50 </v>
   <v type="int" >       24       18       45       49       50 </v>
   <v type="int" >       24       18       24       24       48 </v>
   <v type="int" >       24       18       24       24       54 </v>
   <v type="int" >       24       18       24       54       58 </v>
   <v type="int" >       24       18       24       48       50 </v>
   <v type="int" >       24       18       18       24       50 </v>
   <v type="int" >       24       18       18       24       58 </v>
   <v type="int" >       24       24       42       54       57 </v>
   <v type="int" >       24       19       42       54       57 </v>
   <v type="int" >       24       19       25       42       54 </v>
   <v type="int" >       24       18       24       42       54 </v>
   <v type="int" >       24       18       42       54       58 </v>
   <v type="int" >       24       25       42       54       58 </v>
   <v type="int" >       24       19       42       47       57 </v>
   <v type="int" >       24       19       41       42       47 </v>
   <v type="int" >       24       19       41       42       56 </v>
   <v type="int" >       24       19       42       42       57 </v>
   <v type="int" >       24       19       25       42       42 </v>
   <v type="int" >       24       19       25       42       56 </v>
   <v type="int" >       24       18       41       45       47 </v>
   <v type="int" >       24       18       41       43       45 </v>
   <v type="int" >       24       18       29       41       43 </v>
   <v type="int" >       24       18       41       42       47 </v>
   <v type="int" >       24       18       41       42       56 </v>
   <v type="int" >       24       18       29       41       56 </v>
   <v type="int" >       24       28       43       45       50 </v>
   <v type="int" >       24       17       28       43       50 </v>
   <v type="int" >       24       17       43       44       50 </v>
   <v type="int" >       24       18       43       45       50 </v>
   <v type="int" >       24       18       29       43       50 </v>
   <v type="int" >       24       29       43       44       50 </v>
   <v type="int" >       48       17       22       28       28 </v>
   <v type="int" >       24       17       22       28       30 </v>
   <v type="int" >       48       17       17       28       30 </v>
   <v type="int" >       24       17       28       28       50 </v>
   <v type="int" >       24       17       28       44       50 </v>
   <v type="int" >       24       17       17       28       44 </v>
   <v type="int" >       24       22       22       28       30 </v>
   <v type="int" >       24       22       28       30       30 </v>
   <v type="int" >       24       17       28       30       30 </v>
   <v type="int" >       24       22       28       28       30 </v>
   <v type="int" >       24       17       28       28       30 </v>
   <v type="int" >       24       22       23       27       27 </v>
   <v type="int" >       24       22       23       23       27 </v>
   <v type="int" >       24       22       23       23       28 </v>
   <v type="int" >       24       22       22       23       27 </v>
   <v type="int" >       24       22       22       23       28 </v>
   <v type="int" >       48       22       23       28       28 </v>
   <v type="int" >       48       23       23       27       28 </v>
   <v type="int" >       24       23       23       28       48 </v>
   <v type="int" >       24       23       28       48       50 </v>
   <v type="int" >       24       22       23       27       28 </v>
   <v type="int" >       24       23       28       28       50 </v>
   <v type="int" >       24       23       45       48       49 </v>
   <v type="int" >       24       24       45       48       49 </v>
   <v type="int" >       24       18       24       45       48 </v>
   <v type="int" >       24       23       28       45       48 </v>
   <v type="int" >       24       28       45       48       50 </v>
   <v type="int" >       24       18       45       48       50 </v>
   <v type="int" >       24       24       46       47       49 </v>
   <v type="int" >       24       24       46       47       57 </v>
   <v type="int" >       24       24       42       47       57 </v>
   <v type="int" >       24       24       45       47       49 </v>
   <v type="int" >       24       18       24       45       47 </v>
   <v type="int" >       24       18       24       42       47 </v>
   <v type="int" >       36       46       46       57       57 </v>
   <v type="int" >       24       42       47       57       57 </v>
   <v type="int" >       12       42       42       57       57 </v>
   <v type="int" >       24       22       27       27       27 </v>
   <v type="int" >       24       22       22       27       27 </v>
   <v type="int" >       24       22       22       22       27 </v>
   <v type="int" >       24       23       27       27       28 </v>
   <v type="int" >       24       23       27       28       28 </v>
   <v type="int" >       24       22       27       27       28 </v>
   <v type="int" >       24       22       22       27       28 </v>
   <v type="int" >       24       22       27       28       28 </v>
   <v type="int" >       24       23       23       45       49 </v>
   <v type="int" >       24       23       45       49       49 </v>
   <v type="int" >       24       23       45       45       49 </v>
   <v type="int" >       24       23       23       28       45 </v>
   <v type="int" >       24       23       28       28       45 </v>
   <v type="int" >       24       23       28       45       45 </v>
   <v type="int" >       24       46       47       49       49 </v>
   <v type="int" >       24       46       46       47       49 </v>
   <v type="int" >       24       46       47       47       49 </v>
   <v type="int" >       24       45       47       49       49 </v>
   <v type="int" >       24       45       45       47       49 </v>
   <v type="int" >       24       45       47       47       49 </v>
   <v type="int" >       48       46       46       46       57 </v>
   <v type="int" >       24       24       46       46       49 </v>
   <v type="int" >       24       24       46       49       49 </v>
   <v type="int" >       24       24       24       46       49 </v>
   <v type="int" >       24       24       46       46       57 </v>
   <v type="int" >       24       24       46       57       57 </v>
   <v type="int" >       24       24       24       46       57 </v>
   <v type="int" >       24       23       48       49       49 </v>
   <v type="int" >       24       23       23       48       49 </v>
   <v type="int" >       24       23       48       48       49 </v>
   <v type="int" >       24       24       48       49       49 </v>
   <v type="int" >       24       24       24       48       49 </v>
   <v type="int" >       24       24       48       48       49 </v>
   <v type="int" >       72       23       23       23       27 </v>
   <v type="int" >       60       23       23       27       27 </v>
   <v type="int" >       24       23       23       23       48 </v>
   <v type="int" >       12       23       23       48       48 </v>
   <v type="int" >       48       23       27       27       27 </v>
   <v type="int" >       24       24       48       54       58 </v>
   <v type="int" >       24       18       24       48       58 </v>
   <v type="int" >       24       18       48       50       58 </v>
   <v type="int" >       24       19       24       25       54 </v>
   <v type="int" >       24       19       24       25       57 </v>
   <v type="int" >       24       24       25       42       57 </v>
   <v type="int" >       24       24       25       54       58 </v>
   <v type="int" >       24       18       24       25       58 </v>
   <v type="int" >       24       18       24       25       42 </v>
   <v type="int" >       24       19       41       56       57 </v>
   <v type="int" >       24       41       47       56       57 </v>
   <v type="int" >       24       42       47       56       57 </v>
   <v type="int" >       24       19       25       56       57 </v>
   <v type="int" >       24       25       42       56       57 </v>
   <v type="int" >       24       42       42       56       57 </v>
   <v type="int" >       24       29       41       43       47 </v>
   <v type="int" >       24       29       43       45       47 </v>
   <v type="int" >       24       18       29       45       47 </v>
   <v type="int" >       24       29       41       47       56 </v>
   <v type="int" >       24       29       42       47       56 </v>
   <v type="int" >       24       18       29       42       47 </v>
   <v type="int" >       24       17       43       44       45 </v>
   <v type="int" >       24       17       28       44       45 </v>
   <v type="int" >       24       28       44       45       50 </v>
   <v type="int" >       24       29       43       44       45 </v>
   <v type="int" >       24       18       29       44       45 </v>
   <v type="int" >       24       18       44       45       50 </v>
   <v type="int" >       24       17       22       30       30 </v>
   <v type="int" >       24       17       22       22       30 </v>
   <v type="int" >       24       17       22       22       28 </v>
   <v type="int" >       24       17       17       22       30 </v>
   <v type="int" >       24       17       17       22       28 </v>
   <v type="int" >       24       19       36       53       54 </v>
   <v type="int" >       24       19       25       36       54 </v>
   <v type="int" >       24       25       36       54       58 </v>
   <v type="int" >       24       13       19       20       53 </v>
   <v type="int" >       24       13       19       20       41 </v>
   <v type="int" >       24       13       19       41       56 </v>
   <v type="int" >       24       13       19       36       53 </v>
   <v type="int" >       24       13       19       25       36 </v>
   <v type="int" >       24       13       19       25       56 </v>
   <v type="int" >       24       11       20       40       41 </v>
   <v type="int" >       24       11       40       41       43 </v>
   <v type="int" >       24       11       29       41       43 </v>
   <v type="int" >       24       11       13       20       41 </v>
   <v type="int" >       24       11       13       41       56 </v>
   <v type="int" >       24       11       29       41       56 </v>
   <v type="int" >       24       31       38       40       43 </v>
   <v type="int" >       24       17       31       38       43 </v>
   <v type="int" >       24       17       38       43       44 </v>
   <v type="int" >       24       11       38       40       43 </v>
   <v type="int" >       24       11       29       38       43 </v>
   <v type="int" >       24       29       38       43       44 </v>
   <v type="int" >       24       16       16       30       31 </v>
   <v type="int" >       24       16       30       30       31 </v>
   <v type="int" >       24       17       30       30       31 </v>
   <v type="int" >       24       16       30       31       31 </v>
   <v type="int" >       24       17       30       31       31 </v>
   <v type="int" >       24       20       35       52       53 </v>
   <v type="int" >       24       13       20       52       53 </v>
   <v type="int" >       24       13       36       52       53 </v>
   <v type="int" >       24       14       20       21       35 </v>
   <v type="int" >       24       14       20       21       40 </v>
   <v type="int" >       24       11       20       21       40 </v>
   <v type="int" >       24       20       21       35       52 </v>
   <v type="int" >       24       13       20       21       52 </v>
   <v type="int" >       24       11       13       20       21 </v>
   <v type="int" >       24       10       14       39       40 </v>
   <v type="int" >       24       10       31       39       40 </v>
   <v type="int" >       24       31       38       39       40 </v>
   <v type="int" >       24       14       21       39       40 </v>
   <v type="int" >       24       11       21       39       40 </v>
   <v type="int" >       24       11       38       39       40 </v>
   <v type="int" >       24       10       16       32       32 </v>
   <v type="int" >       24       10       16       16       32 </v>
   <v type="int" >       24       10       16       16       31 </v>
   <v type="int" >       24       10       10       16       32 </v>
   <v type="int" >       24       10       10       16       31 </v>
   <v type="int" >       24        3       14       34       35 </v>
   <v type="int" >       24        3       14       21       35 </v>
   <v type="int" >       24        3       21       35       52 </v>
   <v type="int" >       24        7       14       15       34 </v>
   <v type="int" >       24        7       10       14       15 </v>
   <v type="int" >       24        7       10       14       39 </v>
   <v type="int" >       24        3        7       14       34 </v>
   <v type="int" >       24        3        7       14       21 </v>
   <v type="int" >       24        7       14       21       39 </v>
   <v type="int" >       24        9        9       15       32 </v>
   <v type="int" >       24        9       15       32       32 </v>
   <v type="int" >       24       10       15       32       32 </v>
   <v type="int" >       24        9       15       15       32 </v>
   <v type="int" >       24       10       15       15       32 </v>
   <v type="int" >       24        2       15       33       34 </v>
   <v type="int" >       24        7       15       33       34 </v>
   <v type="int" >       24        3        7       33       34 </v>
   <v type="int" >       24        2        8        8        9 </v>
   <v type="int" >       24        2        8        9        9 </v>
   <v type="int" >       24        2        9        9       15 </v>
   <v type="int" >       24        2        2        8        9 </v>
   <v type="int" >       24        2        2        9       15 </v>
   <v type="int" >       36        1        1        8        8 </v>
   <v type="int" >       48        1        8        8        8 </v>
   <v type="int" >       24        2        8        8        8 </v>
   <v type="int" >       24        1        1        1        8 </v>
   <v type="int" >       24        3        7       33       51 </v>
   <v type="int" >       24        3        6        7       21 </v>
   <v type="int" >       24        6        7       21       39 </v>
   <v type="int" >       24        3        6        7       51 </v>
   <v type="int" >       24       11       21       39       55 </v>
   <v type="int" >       24       11       38       39       55 </v>
   <v type="int" >       24        6       21       39       55 </v>
   <v type="int" >       24       11       29       37       38 </v>
   <v type="int" >       24       29       37       38       44 </v>
   <v type="int" >       24       11       37       38       55 </v>
   <v type="int" >       24       18       29       44       58 </v>
   <v type="int" >       24       18       44       50       58 </v>
   <v type="int" >       24       29       37       44       58 </v>
   <v type="int" >       24       24       24       48       54 </v>
   <v type="int" >       24       24       48       48       54 </v>
   <v type="int" >       24       24       48       54       54 </v>
   <v type="int" >       24       18       29       37       50 </v>
   <v type="int" >       24       29       37       44       50 </v>
   <v type="int" >       24       18       37       50       58 </v>
   <v type="int" >       24       11       29       44       55 </v>
   <v type="int" >       24       11       38       44       55 </v>
   <v type="int" >       24       29       37       44       55 </v>
   <v type="int" >       24        6       11       21       38 </v>
   <v type="int" >       24        6       21       38       39 </v>
   <v type="int" >       24        6       11       38       55 </v>
   <v type="int" >       24        3       21       39       51 </v>
   <v type="int" >       24        3        7       39       51 </v>
   <v type="int" >       24        6       21       39       51 </v>
   <v type="int" >       24        3        3        7        7 </v>
   <v type="int" >       24        3        7        7       33 </v>
   <v type="int" >       24        3        3        7       51 </v>
   <v type="int" >       24        2       15       15       34 </v>
   <v type="int" >       24        2        2       15       34 </v>
   <v type="int" >       24        2       15       34       34 </v>
   <v type="int" >       24        3        4       21       52 </v>
   <v type="int" >       24        3        4        6       21 </v>
   <v type="int" >       24        3        4        6       51 </v>
   <v type="int" >       24       13       21       26       52 </v>
   <v type="int" >       24       11       13       21       26 </v>
   <v type="int" >       24       11       21       26       55 </v>
   <v type="int" >       24        4       21       26       52 </v>
   <v type="int" >       24        4        6       21       26 </v>
   <v type="int" >       24        6       21       26       55 </v>
   <v type="int" >       24       11       12       13       56 </v>
   <v type="int" >       24       11       12       29       56 </v>
   <v type="int" >       24       11       12       29       37 </v>
   <v type="int" >       24       11       12       13       26 </v>
   <v type="int" >       24       11       12       26       55 </v>
   <v type="int" >       24       11       12       37       55 </v>
   <v type="int" >       24       25       29       42       56 </v>
   <v type="int" >       24       18       25       29       42 </v>
   <v type="int" >       24       18       25       29       58 </v>
   <v type="int" >       24       12       25       29       56 </v>
   <v type="int" >       24       12       25       29       37 </v>
   <v type="int" >       24       25       29       37       58 </v>
   <v type="int" >       24       19       24       57       57 </v>
   <v type="int" >       24       19       24       24       57 </v>
   <v type="int" >       24       19       24       24       54 </v>
   <v type="int" >       24       19       19       24       57 </v>
   <v type="int" >       24       19       19       24       54 </v>
   <v type="int" >       24       19       24       54       54 </v>
   <v type="int" >       24       12       18       42       56 </v>
   <v type="int" >       24       12       18       29       56 </v>
   <v type="int" >       24       12       18       29       37 </v>
   <v type="int" >       24       12       18       25       42 </v>
   <v type="int" >       24       12       18       25       58 </v>
   <v type="int" >       24       12       18       37       58 </v>
   <v type="int" >       24       13       26       29       56 </v>
   <v type="int" >       24       11       13       26       29 </v>
   <v type="int" >       24       11       26       29       55 </v>
   <v type="int" >       24       12       26       29       56 </v>
   <v type="int" >       24       12       26       29       37 </v>
   <v type="int" >       24       26       29       37       55 </v>
   <v type="int" >       24        4       11       13       52 </v>
   <v type="int" >       24        4       11       21       52 </v>
   <v type="int" >       24        4        6       11       21 </v>
   <v type="int" >       24        4       11       13       26 </v>
   <v type="int" >       24        4       11       26       55 </v>
   <v type="int" >       24        4        6       11       55 </v>
   <v type="int" >       24        6       21       21       52 </v>
   <v type="int" >       48        3        6       21       21 </v>
   <v type="int" >       48        3        6       21       51 </v>
   <v type="int" >       24        4        6       21       52 </v>
   <v type="int" >       24        4        6        6       21 </v>
   <v type="int" >       24        6        6       21       51 </v>
   <v type="int" >       24        3       21       21       39 </v>
   <v type="int" >       24        3        7       21       39 </v>
   <v type="int" >       24        3        3        7       21 </v>
   <v type="int" >       24        3        3       21       51 </v>
   <v type="int" >       24       10       10       14       15 </v>
   <v type="int" >       24       10       14       15       15 </v>
   <v type="int" >       24       14       15       15       34 </v>
   <v type="int" >       24       10       14       14       15 </v>
   <v type="int" >       24       14       14       15       34 </v>
   <v type="int" >       24       14       15       34       34 </v>
   <v type="int" >       24       13       36       52       60 </v>
   <v type="int" >       24       13       26       52       60 </v>
   <v type="int" >       24        4       26       52       60 </v>
   <v type="int" >       24       12       13       25       36 </v>
   <v type="int" >       24       12       13       25       56 </v>
   <v type="int" >       24       12       12       13       56 </v>
   <v type="int" >       24       12       13       36       60 </v>
   <v type="int" >       24       12       13       26       60 </v>
   <v type="int" >       24       12       12       13       26 </v>
   <v type="int" >       24       25       42       56       56 </v>
   <v type="int" >       12       42       42       56       56 </v>
   <v type="int" >       24       12       25       56       56 </v>
   <v type="int" >       12       12       12       56       56 </v>
   <v type="int" >       24       41       47       47       57 </v>
   <v type="int" >       24       41       47       57       57 </v>
   <v type="int" >       24       19       41       57       57 </v>
   <v type="int" >       24       41       41       47       57 </v>
   <v type="int" >       24       19       41       41       57 </v>
   <v type="int" >       24       19       19       41       57 </v>
   <v type="int" >       24       12       25       42       42 </v>
   <v type="int" >       48       12       25       42       56 </v>
   <v type="int" >       24       12       12       42       56 </v>
   <v type="int" >       24       12       42       42       56 </v>
   <v type="int" >       24       12       12       25       42 </v>
   <v type="int" >       24       25       36       56       60 </v>
   <v type="int" >       24       13       36       56       60 </v>
   <v type="int" >       24       13       26       56       60 </v>
   <v type="int" >       24       12       25       56       60 </v>
   <v type="int" >       24       12       12       56       60 </v>
   <v type="int" >       24       12       26       56       60 </v>
   <v type="int" >       24       13       13       26       36 </v>
   <v type="int" >       24       13       13       26       52 </v>
   <v type="int" >       24        4       13       26       52 </v>
   <v type="int" >       24       13       26       36       60 </v>
   <v type="int" >       24       13       26       26       60 </v>
   <v type="int" >       24        4       13       26       26 </v>
   <v type="int" >       24       11       13       52       55 </v>
   <v type="int" >       24       11       21       52       55 </v>
   <v type="int" >       24        6       21       52       55 </v>
   <v type="int" >       24       13       26       52       55 </v>
   <v type="int" >       24        4       26       52       55 </v>
   <v type="int" >       24        4        6       52       55 </v>
   <v type="int" >       24       11       11       21       38 </v>
   <v type="int" >       24       11       21       38       39 </v>
   <v type="int" >       24       11       21       21       39 </v>
   <v type="int" >       24       11       11       21       55 </v>
   <v type="int" >       24        6       11       21       55 </v>
   <v type="int" >       24        6       11       21       21 </v>
   <v type="int" >       24       10       31       31       40 </v>
   <v type="int" >       24       10       10       31       40 </v>
   <v type="int" >       24       10       10       14       40 </v>
   <v type="int" >       24       10       31       40       40 </v>
   <v type="int" >       24       10       14       40       40 </v>
   <v type="int" >       24       10       14       14       40 </v>
   <v type="int" >       24       25       36       37       58 </v>
   <v type="int" >       24       12       25       36       37 </v>
   <v type="int" >       24       12       36       37       60 </v>
   <v type="int" >       24       43       45       45       47 </v>
   <v type="int" >       24       43       45       47       47 </v>
   <v type="int" >       24       41       43       47       47 </v>
   <v type="int" >       24       43       43       45       47 </v>
   <v type="int" >       24       41       43       43       47 </v>
   <v type="int" >       24       41       41       43       47 </v>
   <v type="int" >       24       18       37       42       58 </v>
   <v type="int" >       24       25       37       42       58 </v>
   <v type="int" >       24       12       25       37       42 </v>
   <v type="int" >       24       18       29       37       42 </v>
   <v type="int" >       24       29       37       42       56 </v>
   <v type="int" >       24       12       37       42       56 </v>
   <v type="int" >       24       12       25       25       58 </v>
   <v type="int" >       24       12       25       25       36 </v>
   <v type="int" >       24       12       25       36       60 </v>
   <v type="int" >       24       12       25       37       58 </v>
   <v type="int" >       24       12       12       25       37 </v>
   <v type="int" >       24       12       12       25       60 </v>
   <v type="int" >       24       12       25       36       56 </v>
   <v type="int" >       24       12       13       36       56 </v>
   <v type="int" >       24       12       13       26       36 </v>
   <v type="int" >       24       12       12       25       36 </v>
   <v type="int" >       24       12       12       36       60 </v>
   <v type="int" >       24       12       26       36       60 </v>
   <v type="int" >       24       13       29       37       56 </v>
   <v type="int" >       24       11       13       29       37 </v>
   <v type="int" >       24       11       13       37       55 </v>
   <v type="int" >       24       12       13       37       56 </v>
   <v type="int" >       24       12       13       26       37 </v>
   <v type="int" >       24       13       26       37       55 </v>
   <v type="int" >       24       11       29       29       44 </v>
   <v type="int" >       24       11       29       38       44 </v>
   <v type="int" >       24       11       11       29       38 </v>
   <v type="int" >       24       11       29       29       37 </v>
   <v type="int" >       24       11       29       37       55 </v>
   <v type="int" >       24       11       11       29       55 </v>
   <v type="int" >       24       17       17       31       43 </v>
   <v type="int" >       24       17       31       31       43 </v>
   <v type="int" >       24       31       31       40       43 </v>
   <v type="int" >       24       17       31       43       43 </v>
   <v type="int" >       24       31       40       43       43 </v>
   <v type="int" >       24       31       40       40       43 </v>
   <v type="int" >       24       17       28       28       45 </v>
   <v type="int" >       24       17       28       45       45 </v>
   <v type="int" >       24       17       43       45       45 </v>
   <v type="int" >       24       17       17       28       45 </v>
   <v type="int" >       24       17       17       43       45 </v>
   <v type="int" >       24       17       43       43       45 </v>
   <v type="int" >       24       18       18       29       50 </v>
   <v type="int" >       24       18       18       29       58 </v>
   <v type="int" >       24       18       29       37       58 </v>
   <v type="int" >       24       18       29       44       50 </v>
   <v type="int" >       24       18       29       29       44 </v>
   <v type="int" >       24       18       29       29       37 </v>
   <v type="int" >       24       18       42       56       58 </v>
   <v type="int" >       24       25       42       56       58 </v>
   <v type="int" >       24       12       25       56       58 </v>
   <v type="int" >       24       18       29       56       58 </v>
   <v type="int" >       24       29       37       56       58 </v>
   <v type="int" >       24       12       37       56       58 </v>
   <v type="int" >       12       25       25       42       42 </v>
   <v type="int" >       24       25       25       42       56 </v>
   <v type="int" >       24       12       25       25       56 </v>
   <v type="int" >       12       12       12       25       25 </v>
   <v type="int" >       24       22       22       22       30 </v>
   <v type="int" >       24       22       22       30       30 </v>
   <v type="int" >       24       22       30       30       30 </v>
   <v type="int" >       24       28       28       43       45 </v>
   <v type="int" >       24       28       43       45       45 </v>
   <v type="int" >       24       28       43       43       45 </v>
   <v type="int" >       24       17       28       28       43 </v>
   <v type="int" >       24       17       17       28       43 </v>
   <v type="int" >       24       17       28       43       43 </v>
   <v type="int" >       24       41       45       45       47 </v>
   <v type="int" >       24       41       45       47       47 </v>
   <v type="int" >       24       41       41       45       47 </v>
   <v type="int" >       24       41       43       45       45 </v>
   <v type="int" >       24       41       43       43       45 </v>
   <v type="int" >       24       41       41       43       45 </v>
   <v type="int" >       24       19       47       47       57 </v>
   <v type="int" >       24       19       47       57       57 </v>
   <v type="int" >       24       19       19       47       57 </v>
   <v type="int" >       24       19       41       47       47 </v>
   <v type="int" >       24       19       41       41       47 </v>
   <v type="int" >       24       19       19       41       47 </v>
   <v type="int" >       24       24       54       57       57 </v>
   <v type="int" >       24       24       24       54       57 </v>
   <v type="int" >       24       24       54       54       57 </v>
   <v type="int" >       24       19       54       57       57 </v>
   <v type="int" >       24       19       19       54       57 </v>
   <v type="int" >       24       19       54       54       57 </v>
   <v type="int" >       24       24       24       24       48 </v>
   <v type="int" >       12       24       24       48       48 </v>
   <v type="int" >       24       24       24       24       54 </v>
   <v type="int" >       12       24       24       54       54 </v>
   <v type="int" >       48       23       23       23       49 </v>
   <v type="int" >       48       23       23       49       49 </v>
   <v type="int" >       48       23       49       49       49 </v>
   <v type="int" >       24       25       36       58       60 </v>
   <v type="int" >       24       12       25       58       60 </v>
   <v type="int" >       24       12       37       58       60 </v>
   <v type="int" >       24       13       25       26       36 </v>
   <v type="int" >       24       13       25       26       56 </v>
   <v type="int" >       24       12       25       26       56 </v>
   <v type="int" >       24       25       26       36       60 </v>
   <v type="int" >       24       12       25       26       60 </v>
   <v type="int" >       24       12       12       25       26 </v>
   <v type="int" >       24       11       13       55       56 </v>
   <v type="int" >       24       11       29       55       56 </v>
   <v type="int" >       24       29       37       55       56 </v>
   <v type="int" >       24       13       26       55       56 </v>
   <v type="int" >       24       12       26       55       56 </v>
   <v type="int" >       24       12       37       55       56 </v>
   <v type="int" >       24       17       31       31       40 </v>
   <v type="int" >       24       17       17       31       40 </v>
   <v type="int" >       24       17       17       40       43 </v>
   <v type="int" >       24       17       31       40       40 </v>
   <v type="int" >       24       17       40       40       43 </v>
   <v type="int" >       24       17       40       43       43 </v>
   <v type="int" >       24        4       13       36       52 </v>
   <v type="int" >       24        4       13       26       36 </v>
   <v type="int" >       24        4       26       36       60 </v>
   <v type="int" >       24        6       13       21       52 </v>
   <v type="int" >       24        6       11       13       21 </v>
   <v type="int" >       24        6       11       13       55 </v>
   <v type="int" >       24        4        6       13       52 </v>
   <v type="int" >       24        4        6       13       26 </v>
   <v type="int" >       24        6       13       26       55 </v>
   <v type="int" >       24       10       10       14       31 </v>
   <v type="int" >       24       10       14       31       31 </v>
   <v type="int" >       24       14       31       31       40 </v>
   <v type="int" >       24       10       14       14       31 </v>
   <v type="int" >       24       14       14       31       40 </v>
   <v type="int" >       24       14       31       40       40 </v>
   <v type="int" >       24        3       21       51       52 </v>
   <v type="int" >       24        6       21       51       52 </v>
   <v type="int" >       24        4        6       51       52 </v>
   <v type="int" >       24       10       15       15       34 </v>
   <v type="int" >       24       10       10       15       34 </v>
   <v type="int" >       24       10       10       14       34 </v>
   <v type="int" >       24       10       15       34       34 </v>
   <v type="int" >       24       10       14       34       34 </v>
   <v type="int" >       24       10       14       14       34 </v>
   <v type="int" >       12        2        2       15       15 </v>
   <v type="int" >       24        2       15       15       15 </v>
   <v type="int" >       24       15       15       15       34 </v>
   <v type="int" >       12       15       15       34       34 </v>
   <v type="int" >       24        8        8        8        9 </v>
   <v type="int" >       24        8        8        9        9 </v>
   <v type="int" >       24        8        9        9        9 </v>
   <v type="int" >       24        4        6       51       59 </v>
   <v type="int" >       24        4        5        6       26 </v>
   <v type="int" >       24        5        6       26       55 </v>
   <v type="int" >       24        4        5        6       59 </v>
   <v type="int" >       24       12       26       55       60 </v>
   <v type="int" >       24       12       37       55       60 </v>
   <v type="int" >       24        5       26       55       60 </v>
   <v type="int" >       24       19       19       53       54 </v>
   <v type="int" >       24       19       53       54       54 </v>
   <v type="int" >       24       19       53       53       54 </v>
   <v type="int" >       24        5       12       26       37 </v>
   <v type="int" >       24        5       26       37       55 </v>
   <v type="int" >       24        5       12       37       60 </v>
   <v type="int" >       24        4       26       55       59 </v>
   <v type="int" >       24        4        6       55       59 </v>
   <v type="int" >       24        5       26       55       59 </v>
   <v type="int" >       24        4        4        6        6 </v>
   <v type="int" >       24        4        6        6       51 </v>
   <v type="int" >       24        4        4        6       59 </v>
   <v type="int" >       24       14       14       34       35 </v>
   <v type="int" >       24       14       34       34       35 </v>
   <v type="int" >       24       14       34       35       35 </v>
   <v type="int" >       24        4        5       26       60 </v>
   <v type="int" >       24        4        5        5       26 </v>
   <v type="int" >       24        4        5        5       59 </v>
   <v type="int" >       24       12       26       26       60 </v>
   <v type="int" >       12       12       12       26       26 </v>
   <v type="int" >       48        5       26       26       60 </v>
   <v type="int" >       12        5        5       26       26 </v>
   <v type="int" >       24       19       20       41       41 </v>
   <v type="int" >       24       19       19       20       41 </v>
   <v type="int" >       24       19       19       20       53 </v>
   <v type="int" >       24       19       20       20       41 </v>
   <v type="int" >       24       19       20       20       53 </v>
   <v type="int" >       24       19       20       53       53 </v>
   <v type="int" >       24        5       12       12       60 </v>
   <v type="int" >       72        5       12       26       60 </v>
   <v type="int" >       24        5        5       12       26 </v>
   <v type="int" >       24        5       12       12       26 </v>
   <v type="int" >       24        5        5       12       60 </v>
   <v type="int" >       48        4        5       26       26 </v>
   <v type="int" >       48        4        5       26       59 </v>
   <v type="int" >       24        5        5       26       60 </v>
   <v type="int" >       24        5        5        5       26 </v>
   <v type="int" >       24        5        5       26       59 </v>
   <v type="int" >       24        4       26       26       55 </v>
   <v type="int" >       24        4        6       26       55 </v>
   <v type="int" >       24        4        4        6       26 </v>
   <v type="int" >       24        4        4       26       59 </v>
   <v type="int" >       24       14       20       40       40 </v>
   <v type="int" >       24       14       14       20       40 </v>
   <v type="int" >       24       14       14       20       35 </v>
   <v type="int" >       24       14       20       20       40 </v>
   <v type="int" >       24       14       20       20       35 </v>
   <v type="int" >       24       14       20       35       35 </v>
   <v type="int" >       24       40       41       43       43 </v>
   <v type="int" >       24       40       41       41       43 </v>
   <v type="int" >       24       20       40       41       41 </v>
   <v type="int" >       24       40       40       41       43 </v>
   <v type="int" >       24       20       40       40       41 </v>
   <v type="int" >       24       20       20       40       41 </v>
   <v type="int" >       24       12       12       26       37 </v>
   <v type="int" >       24       12       12       26       60 </v>
   <v type="int" >       24       12       26       37       55 </v>
   <v type="int" >       24       12       26       26       55 </v>
   <v type="int" >       24        5       12       26       26 </v>
   <v type="int" >       12       12       12       60       60 </v>
   <v type="int" >       24       12       26       60       60 </v>
   <v type="int" >       24        5       26       60       60 </v>
   <v type="int" >       12        5        5       60       60 </v>
   <v type="int" >       24       16       30       30       30 </v>
   <v type="int" >       24       16       16       30       30 </v>
   <v type="int" >       24       16       16       16       30 </v>
   <v type="int" >       24       20       41       43       43 </v>
   <v type="int" >       24       20       41       41       43 </v>
   <v type="int" >       24       20       20       41       43 </v>
   <v type="int" >       24       20       40       43       43 </v>
   <v type="int" >       24       20       40       40       43 </v>
   <v type="int" >       24       20       20       40       43 </v>
   <v type="int" >       24       19       41       41       53 </v>
   <v type="int" >       24       19       19       41       53 </v>
   <v type="int" >       24       19       41       53       53 </v>
   <v type="int" >       24       20       41       41       53 </v>
   <v type="int" >       24       20       20       41       53 </v>
   <v type="int" >       24       20       41       53       53 </v>
   <v type="int" >       24       19       19       19       54 </v>
   <v type="int" >       12       19       19       54       54 </v>
   <v type="int" >       24       19       19       19       53 </v>
   <v type="int" >       12       19       19       53       53 </v>
   <v type="int" >       48       46       49       49       49 </v>
   <v type="int" >       48       46       46       49       49 </v>
   <v type="int" >       48       46       46       46       49 </v>
   <v type="int" >       24        4       26       59       60 </v>
   <v type="int" >       24        5       26       59       60 </v>
   <v type="int" >       24        5        5       59       60 </v>
   <v type="int" >       24       14       14       35       40 </v>
   <v type="int" >       24       14       35       40       40 </v>
   <v type="int" >       24       20       35       40       40 </v>
   <v type="int" >       24       14       35       35       40 </v>
   <v type="int" >       24       20       35       35       40 </v>
   <v type="int" >       24       20       20       35       40 </v>
   <v type="int" >       12       14       14       34       34 </v>
   <v type="int" >       24       14       14       14       34 </v>
   <v type="int" >       24       14       14       14       35 </v>
   <v type="int" >       12       14       14       35       35 </v>
   <v type="int" >       24        9        9        9       32 </v>
   <v type="int" >       24        9        9       32       32 </v>
   <v type="int" >       24        9       32       32       32 </v>
   <v type="int" >       12        5        5       59       59 </v>
   <v type="int" >       24       20       20       35       53 </v>
   <v type="int" >       24       20       35       53       53 </v>
   <v type="int" >       24       20       35       35       53 </v>
   <v type="int" >       12        5        5        5        5 </v>
   <v type="int" >       24        5        5        5       59 </v>
   <v type="int" >       24       16       16       16       32 </v>
   <v type="int" >       24       16       16       32       32 </v>
   <v type="int" >       24       16       32       32       32 </v>
   <v type="int" >       24       20       20       20       53 </v>
   <v type="int" >       12       20       20       53       53 </v>
   <v type="int" >       24       20       20       20       35 </v>
   <v type="int" >       12       20       20       35       35 </v>
   <v type="int" >       72       46       46       46       46 </v>
   <v type="int" >       12        1        1        1        1 </v>
   <v type="int" >       36       27       27       27       27 </v>
  </varray>
  <i name="volumeweight">      0.00004069 </i>
 </kpoints>
 <parameters>
  <separator name="general" >
   <i type="string" name="SYSTEM">unknown system</i>
   <i type="logical" name="LCOMPAT"> F  </i>
  </separator>
  <separator name="electronic" >
   <i type="string" name="PREC">normal</i>
   <i name="ENMAX">    300.00000000</i>
   <i name="ENAUG">    416.23000000</i>
   <i name="EDIFF">      0.00010000</i>
   <i type="int" name="IALGO">    38</i>
   <i type="int" name="IWAVPR">     0</i>
   <i type="int" name="NBANDS">     9</i>
   <i name="NELECT">     10.00000000</i>
   <i type="int" name="TURBO">     0</i>
   <i type="int" name="IRESTART">     0</i>
   <i type="int" name="NREBOOT">     0</i>
   <i type="int" name="NMIN">     0</i>
   <i name="EREF">      0.00000000</i>
   <separator name="electronic smearing" >
    <i type="int" name="ISMEAR">    -5</i>
    <i name="SIGMA">      0.20000000</i>
    <i name="KSPACING">      0.50000000</i>
    <i type="logical" name="KGAMMA"> T  </i>
   </separator>
   <separator name="electronic projectors" >
    <i type="logical" name="LREAL"> F  </i>
    <v name="ROPT">      0.00000000</v>
    <i type="int" name="LMAXPAW">  -100</i>
    <i type="int" name="LMAXMIX">     2</i>
    <i type="logical" name="NLSPLINE"> F  </i>
   </separator>
   <separator name="electronic startup" >
    <i type="int" name="ISTART">     1</i>
    <i type="int" name="ICHARG">     0</i>
    <i type="int" name="INIWAV">     1</i>
   </separator>
   <separator name="electronic spin" >
    <i type="int" name="ISPIN">     1</i>
    <i type="logical" name="LNONCOLLINEAR"> F  </i>
    <v name="MAGMOM">      1.00000000</v>
    <i name="NUPDOWN">     -1.00000000</i>
    <i type="logical" name="LSORBIT"> F  </i>
    <v name="SAXIS">      0.00000000      0.00000000      1.00000000</v>
    <i type="logical" name="LSPIRAL"> F  </i>
    <v name="QSPIRAL">      0.00000000      0.00000000      0.00000000</v>
    <i type="logical" name="LZEROZ"> F  </i>
   </separator>
   <separator name="electronic exchange-correlation" >
    <i type="logical" name="LASPH"> F  </i>
    <i type="logical" name="LMETAGGA"> F  </i>
   </separator>
   <separator name="electronic convergence" >
    <i type="int" name="NELM">    60</i>
    <i type="int" name="NELMDL">     0</i>
    <i type="int" name="NELMIN">     2</i>
    <i name="ENINI">    300.00000000</i>
    <separator name="electronic convergence detail" >
     <i type="logical" name="LDIAG"> T  </i>
     <i type="logical" name="LSUBROT"> T  </i>
     <i name="WEIMIN">      0.00000000</i>
     <i name="EBREAK">      0.00000278</i>
     <i name="DEPER">      0.30000000</i>
     <i type="int" name="NRMM">     4</i>
     <i name="TIME">      0.40000000</i>
    </separator>
   </separator>
   <separator name="electronic mixer" >
    <i name="AMIX">      0.40000000</i>
    <i name="BMIX">      1.00000000</i>
    <i name="AMIN">      0.10000000</i>
    <i name="AMIX_MAG">      1.60000000</i>
    <i name="BMIX_MAG">      1.00000000</i>
    <separator name="electronic mixer details" >
     <i type="int" name="IMIX">     4</i>
     <i type="int" name="MAXMIX">   -45</i>
     <i name="WC">    100.00000000</i>
     <i type="int" name="INIMIX">     1</i>
     <i type="int" name="MIXPRE">     1</i>
     <i type="int" name="MREMOVE">     5</i>
    </separator>
   </separator>
   <separator name="electronic dipolcorrection" >
    <i type="logical" name="LDIPOL"> F  </i>
    <i type="logical" name="LMONO"> F  </i>
    <i type="int" name="IDIPOL">     0</i>
    <i name="EPSILON">      1.00000000</i>
    <v name="DIPOL">   -100.00000000   -100.00000000   -100.00000000</v>
    <i name="EFIELD">      0.00000000</i>
   </separator>
  </separator>
  <separator name="grids" >
   <i type="int" name="NGX">    12</i>
   <i type="int" name="NGY">    12</i>
   <i type="int" name="NGZ">    12</i>
   <i type="int" name="NGXF">    24</i>
   <i type="int" name="NGYF">    24</i>
   <i type="int" name="NGZF">    24</i>
   <i type="logical" name="ADDGRID"> F  </i>
  </separator>
  <separator name="ionic" >
   <i type="int" name="NSW">     0</i>
   <i type="int" name="IBRION">    -1</i>
   <i type="int" name="ISIF">     2</i>
   <i name="PSTRESS">      0.00000000</i>
   <i name="EDIFFG">      0.00100000</i>
   <i type="int" name="NFREE">     0</i>
   <i name="POTIM">      0.50000000</i>
   <i name="SMASS">     -3.00000000</i>
   <i name="SCALEE">      1.00000000</i>
  </separator>
  <separator name="ionic md" >
   <i name="TEBEG">      0.00010000</i>
   <i name="TEEND">      0.00010000</i>
   <i type="int" name="NBLOCK">     1</i>
   <i type="int" name="KBLOCK">     1</i>
   <i type="int" name="NPACO">   256</i>
   <i name="APACO">     16.00000000</i>
  </separator>
  <separator name="symmetry" >
   <i type="int" name="ISYM">     2</i>
   <i name="SYMPREC">      0.00001000</i>
  </separator>
  <separator name="dos" >
[...]
       <set comment="band 3">
        <r>  0.0337  0.1400  0.7347 </r>
       </set>
       <set comment="band 4">
        <r>  0.0000  0.0085  0.9476 </r>
       </set>
       <set comment="band 5">
        <r>  0.0000  0.0000  0.9814 </r>
       </set>
       <set comment="band 6">
        <r>  0.0836  0.3848  0.3687 </r>
       </set>
       <set comment="band 7">
        <r>  0.3647  0.1762  0.2852 </r>
       </set>
       <set comment="band 8">
        <r>  0.0506  0.2185  0.2527 </r>
       </set>
       <set comment="band 9">
        <r>  0.0000  0.5132  0.1337 </r>
       </set>
      </set>
      <set comment="kpoint 38">
       <set comment="band 1">
        <r>  0.1928  0.0605  0.6236 </r>
       </set>
       <set comment="band 2">
        <r>  0.0527  0.0843  0.7585 </r>
       </set>
       <set comment="band 3">
        <r>  0.0708  0.0449  0.8137 </r>
       </set>
       <set comment="band 4">
        <r>  0.0000  0.0113  0.9490 </r>
       </set>
       <set comment="band 5">
        <r>  0.0000  0.0018  0.9778 </r>
       </set>
       <set comment="band 6">
        <r>  0.1312  0.1626  0.6070 </r>
       </set>
       <set comment="band 7">
        <r>  0.1577  0.3260  0.2409 </r>
       </set>
       <set comment="band 8">
        <r>  0.0148  0.1097  0.2725 </r>
       </set>
       <set comment="band 9">
        <r>  0.0000  0.4984  0.1609 </r>
       </set>
      </set>
      <set comment="kpoint 39">
       <set comment="band 1">
        <r>  0.3893  0.0933  0.3450 </r>
       </set>
       <set comment="band 2">
        <r>  0.0712  0.0866  0.7462 </r>
       </set>
       <set comment="band 3">
        <r>  0.0054  0.0040  0.9414 </r>
       </set>
       <set comment="band 4">
        <r>  0.0000  0.0086  0.9532 </r>
       </set>
       <set comment="band 5">
        <r>  0.0722  0.0727  0.7882 </r>
       </set>
       <set comment="band 6">
        <r>  0.0000  0.0021  0.9735 </r>
       </set>
       <set comment="band 7">
        <r>  0.1300  0.2898  0.2587 </r>
       </set>
       <set comment="band 8">
        <r>  0.0014  0.0233  0.1923 </r>
       </set>
       <set comment="band 9">
        <r>  0.0000  0.4522  0.2048 </r>
       </set>
      </set>
      <set comment="kpoint 40">
       <set comment="band 1">
        <r>  0.1825  0.0912  0.5989 </r>
       </set>
       <set comment="band 2">
        <r>  0.0650  0.0887  0.7452 </r>
       </set>
       <set comment="band 3">
        <r>  0.0298  0.0167  0.8904 </r>
       </set>
       <set comment="band 4">
        <r>  0.0115  0.0263  0.9150 </r>
       </set>
       <set comment="band 5">
        <r>  0.0106  0.0282  0.9186 </r>
       </set>
       <set comment="band 6">
        <r>  0.1338  0.1309  0.6543 </r>
       </set>
       <set comment="band 7">
        <r>  0.1602  0.3172  0.2354 </r>
       </set>
       <set comment="band 8">
        <r>  0.0495  0.3688  0.2667 </r>
       </set>
       <set comment="band 9">
        <r>  0.0593  0.2141  0.2172 </r>
       </set>
      </set>
      <set comment="kpoint 41">
       <set comment="band 1">
        <r>  0.0585  0.0813  0.7693 </r>
       </set>
       <set comment="band 2">
        <r>  0.0012  0.0361  0.8719 </r>
       </set>
       <set comment="band 3">
        <r>  0.0544  0.1039  0.7539 </r>
       </set>
       <set comment="band 4">
        <r>  0.0005  0.0320  0.9180 </r>
       </set>
       <set comment="band 5">
        <r>  0.0001  0.0088  0.9602 </r>
       </set>
       <set comment="band 6">
        <r>  0.1912  0.2573  0.4145 </r>
       </set>
       <set comment="band 7">
        <r>  0.1803  0.3490  0.2564 </r>
       </set>
       <set comment="band 8">
        <r>  0.1505  0.3446  0.2264 </r>
       </set>
       <set comment="band 9">
        <r>  0.0697  0.2754  0.2682 </r>
       </set>
      </set>
      <set comment="kpoint 42">
       <set comment="band 1">
        <r>  0.0449  0.0407  0.8303 </r>
       </set>
       <set comment="band 2">
        <r>  0.0099  0.0694  0.8227 </r>
       </set>
       <set comment="band 3">
        <r>  0.0088  0.1183  0.7935 </r>
       </set>
       <set comment="band 4">
        <r>  0.0013  0.0194  0.9321 </r>
       </set>
       <set comment="band 5">
        <r>  0.0034  0.0008  0.9716 </r>
       </set>
       <set comment="band 6">
        <r>  0.0420  0.4643  0.3103 </r>
       </set>
       <set comment="band 7">
        <r>  0.3769  0.1866  0.2640 </r>
       </set>
       <set comment="band 8">
        <r>  0.1596  0.3188  0.2345 </r>
       </set>
       <set comment="band 9">
        <r>  0.0509  0.3531  0.2580 </r>
       </set>
      </set>
      <set comment="kpoint 43">
       <set comment="band 1">
        <r>  0.0638  0.0515  0.7848 </r>
       </set>
       <set comment="band 2">
        <r>  0.0190  0.0631  0.8239 </r>
       </set>
       <set comment="band 3">
        <r>  0.0754  0.0710  0.7749 </r>
       </set>
       <set comment="band 4">
        <r>  0.0063  0.0366  0.9113 </r>
       </set>
       <set comment="band 5">
        <r>  0.0010  0.0178  0.9495 </r>
       </set>
       <set comment="band 6">
        <r>  0.1709  0.2397  0.4707 </r>
       </set>
       <set comment="band 7">
        <r>  0.1744  0.3565  0.2061 </r>
       </set>
       <set comment="band 8">
        <r>  0.0815  0.4164  0.2066 </r>
       </set>
       <set comment="band 9">
        <r>  0.0917  0.2394  0.2983 </r>
       </set>
      </set>
      <set comment="kpoint 44">
       <set comment="band 1">
        <r>  0.0841  0.0275  0.7912 </r>
       </set>
       <set comment="band 2">
        <r>  0.0193  0.0625  0.8210 </r>
       </set>
       <set comment="band 3">
        <r>  0.0827  0.0999  0.7337 </r>
       </set>
       <set comment="band 4">
        <r>  0.0000  0.0124  0.9479 </r>
       </set>
       <set comment="band 5">
        <r>  0.0000  0.0009  0.9816 </r>
       </set>
       <set comment="band 6">
        <r>  0.1553  0.2692  0.4483 </r>
       </set>
       <set comment="band 7">
        <r>  0.1867  0.3539  0.1959 </r>
       </set>
       <set comment="band 8">
        <r>  0.0897  0.2194  0.3153 </r>
       </set>
       <set comment="band 9">
        <r>  0.0000  0.5325  0.1189 </r>
       </set>
      </set>
      <set comment="kpoint 45">
       <set comment="band 1">
        <r>  0.0366  0.0362  0.8182 </r>
       </set>
       <set comment="band 2">
        <r>  0.0014  0.0503  0.8732 </r>
       </set>
       <set comment="band 3">
        <r>  0.0408  0.0983  0.7846 </r>
       </set>
       <set comment="band 4">
        <r>  0.0000  0.0310  0.9275 </r>
       </set>
       <set comment="band 5">
        <r>  0.0004  0.0061  0.9702 </r>
       </set>
       <set comment="band 6">
        <r>  0.1454  0.3686  0.3368 </r>
       </set>
       <set comment="band 7">
        <r>  0.1957  0.3806  0.1642 </r>
       </set>
       <set comment="band 8">
        <r>  0.2394  0.3550  0.1530 </r>
       </set>
       <set comment="band 9">
        <r>  0.0105  0.3163  0.3506 </r>
       </set>
      </set>
      <set comment="kpoint 46">
       <set comment="band 1">
        <r>  0.0046  0.0524  0.8273 </r>
       </set>
       <set comment="band 2">
        <r>  0.0027  0.0743  0.8530 </r>
       </set>
       <set comment="band 3">
        <r>  0.0050  0.1006  0.8224 </r>
       </set>
       <set comment="band 4">
        <r>  0.0187  0.0055  0.9259 </r>
       </set>
       <set comment="band 5">
        <r>  0.0002  0.0016  0.9800 </r>
       </set>
       <set comment="band 6">
        <r>  0.0649  0.4990  0.2542 </r>
       </set>
       <set comment="band 7">
        <r>  0.1516  0.4236  0.2125 </r>
       </set>
       <set comment="band 8">
        <r>  0.4279  0.1767  0.1678 </r>
       </set>
       <set comment="band 9">
        <r>  0.0172  0.3325  0.3541 </r>
       </set>
      </set>
      <set comment="kpoint 47">
       <set comment="band 1">
        <r>  0.0080  0.0558  0.8237 </r>
       </set>
       <set comment="band 2">
        <r>  0.0088  0.0701  0.8497 </r>
       </set>
       <set comment="band 3">
        <r>  0.0342  0.0943  0.7934 </r>
       </set>
       <set comment="band 4">
        <r>  0.0045  0.0211  0.9266 </r>
       </set>
       <set comment="band 5">
        <r>  0.0009  0.0052  0.9699 </r>
       </set>
       <set comment="band 6">
        <r>  0.1655  0.3550  0.3152 </r>
       </set>
       <set comment="band 7">
        <r>  0.1631  0.3935  0.2347 </r>
       </set>
       <set comment="band 8">
        <r>  0.2364  0.3182  0.1810 </r>
       </set>
       <set comment="band 9">
        <r>  0.0764  0.2944  0.3229 </r>
       </set>
      </set>
      <set comment="kpoint 48">
       <set comment="band 1">
        <r>  0.0380  0.0036  0.8578 </r>
       </set>
       <set comment="band 2">
        <r>  0.0016  0.0506  0.8676 </r>
       </set>
       <set comment="band 3">
        <r>  0.0048  0.1340  0.7917 </r>
       </set>
       <set comment="band 4">
        <r>  0.0000  0.0100  0.9567 </r>
       </set>
       <set comment="band 5">
        <r>  0.0000  0.0000  0.9799 </r>
       </set>
       <set comment="band 6">
        <r>  0.0316  0.5479  0.2480 </r>
       </set>
       <set comment="band 7">
        <r>  0.2835  0.3405  0.0993 </r>
       </set>
       <set comment="band 8">
        <r>  0.2523  0.1589  0.3804 </r>
       </set>
       <set comment="band 9">
        <r>  0.0000  0.5696  0.0711 </r>
       </set>
      </set>
      <set comment="kpoint 49">
       <set comment="band 1">
        <r>  0.0262  0.0292  0.8313 </r>
       </set>
       <set comment="band 2">
        <r>  0.0001  0.0476  0.8836 </r>
       </set>
       <set comment="band 3">
        <r>  0.0060  0.1192  0.8034 </r>
       </set>
       <set comment="band 4">
        <r>  0.0065  0.0124  0.9406 </r>
       </set>
       <set comment="band 5">
        <r>  0.0002  0.0015  0.9803 </r>
       </set>
       <set comment="band 6">
        <r>  0.0413  0.5360  0.2486 </r>
       </set>
       <set comment="band 7">
        <r>  0.3109  0.3154  0.1202 </r>
       </set>
       <set comment="band 8">
        <r>  0.2291  0.2215  0.3303 </r>
       </set>
       <set comment="band 9">
        <r>  0.0422  0.4346  0.2064 </r>
       </set>
      </set>
      <set comment="kpoint 50">
       <set comment="band 1">
        <r>  0.0494  0.0106  0.8435 </r>
       </set>
       <set comment="band 2">
        <r>  0.0053  0.0536  0.8537 </r>
       </set>
       <set comment="band 3">
        <r>  0.0387  0.1246  0.7594 </r>
       </set>
       <set comment="band 4">
        <r>  0.0000  0.0115  0.9513 </r>
       </set>
       <set comment="band 5">
        <r>  0.0000  0.0001  0.9824 </r>
       </set>
       <set comment="band 6">
        <r>  0.1246  0.3929  0.3321 </r>
       </set>
       <set comment="band 7">
        <r>  0.2223  0.3654  0.1411 </r>
       </set>
       <set comment="band 8">
        <r>  0.1748  0.2246  0.3395 </r>
       </set>
       <set comment="band 9">
        <r>  0.0000  0.5567  0.0876 </r>
       </set>
      </set>
      <set comment="kpoint 51">
       <set comment="band 1">
        <r>  0.3283  0.0410  0.4924 </r>
       </set>
       <set comment="band 2">
        <r>  0.0000  0.0011  0.9601 </r>
       </set>
       <set comment="band 3">
        <r>  0.0000  0.0011  0.9601 </r>
       </set>
       <set comment="band 4">
        <r>  0.1763  0.2616  0.3900 </r>
       </set>
       <set comment="band 5">
        <r>  0.0000  0.0025  0.9676 </r>
       </set>
       <set comment="band 6">
        <r>  0.0000  0.0025  0.9676 </r>
       </set>
       <set comment="band 7">
        <r>  0.1957  0.2584  0.2833 </r>
       </set>
       <set comment="band 8">
        <r>  0.0008  0.0223  0.0549 </r>
       </set>
       <set comment="band 9">
        <r>  0.0000  0.9636  0.0001 </r>
       </set>
      </set>
      <set comment="kpoint 52">
       <set comment="band 1">
        <r>  0.2148  0.0466  0.6271 </r>
       </set>
       <set comment="band 2">
        <r>  0.0032  0.0074  0.9400 </r>
       </set>
       <set comment="band 3">
        <r>  0.0000  0.0013  0.9556 </r>
       </set>
       <set comment="band 4">
        <r>  0.0941  0.2133  0.5494 </r>
       </set>
       <set comment="band 5">
        <r>  0.0000  0.0026  0.9636 </r>
       </set>
       <set comment="band 6">
        <r>  0.1060  0.1352  0.6761 </r>
       </set>
       <set comment="band 7">
        <r>  0.2368  0.2564  0.2865 </r>
       </set>
       <set comment="band 8">
        <r>  0.0218  0.2046  0.2288 </r>
       </set>
       <set comment="band 9">
        <r>  0.0346  0.2977  0.0161 </r>
       </set>
      </set>
      <set comment="kpoint 53">
       <set comment="band 1">
        <r>  0.0946  0.0386  0.7874 </r>
       </set>
       <set comment="band 2">
        <r>  0.0079  0.0746  0.8268 </r>
       </set>
       <set comment="band 3">
        <r>  0.0270  0.1554  0.7101 </r>
       </set>
       <set comment="band 4">
        <r>  0.0000  0.0092  0.9435 </r>
       </set>
       <set comment="band 5">
        <r>  0.0000  0.0008  0.9663 </r>
       </set>
       <set comment="band 6">
        <r>  0.2002  0.2231  0.4421 </r>
       </set>
       <set comment="band 7">
        <r>  0.1787  0.3357  0.2882 </r>
       </set>
       <set comment="band 8">
        <r>  0.1616  0.3108  0.2487 </r>
       </set>
       <set comment="band 9">
        <r>  0.0476  0.1100  0.1441 </r>
       </set>
      </set>
      <set comment="kpoint 54">
       <set comment="band 1">
        <r>  0.0383  0.0021  0.8793 </r>
       </set>
       <set comment="band 2">
        <r>  0.0045  0.1189  0.7696 </r>
       </set>
       <set comment="band 3">
        <r>  0.0020  0.1247  0.7993 </r>
       </set>
       <set comment="band 4">
        <r>  0.0000  0.0127  0.9434 </r>
       </set>
       <set comment="band 5">
        <r>  0.0000  0.0003  0.9732 </r>
       </set>
       <set comment="band 6">
        <r>  0.1761  0.3594  0.2543 </r>
       </set>
       <set comment="band 7">
        <r>  0.1433  0.4060  0.2902 </r>
       </set>
       <set comment="band 8">
        <r>  0.2841  0.1902  0.2799 </r>
       </set>
       <set comment="band 9">
        <r>  0.0000  0.5246  0.1509 </r>
       </set>
      </set>
      <set comment="kpoint 55">
       <set comment="band 1">
        <r>  0.1686  0.0280  0.7066 </r>
       </set>
       <set comment="band 2">
        <r>  0.0001  0.0143  0.9228 </r>
       </set>
       <set comment="band 3">
        <r>  0.0000  0.0058  0.9522 </r>
       </set>
       <set comment="band 4">
        <r>  0.0588  0.1713  0.6564 </r>
       </set>
       <set comment="band 5">
        <r>  0.0000  0.0006  0.9802 </r>
       </set>
       <set comment="band 6">
        <r>  0.1085  0.2781  0.4755 </r>
       </set>
       <set comment="band 7">
        <r>  0.3085  0.2096  0.2970 </r>
       </set>
       <set comment="band 8">
        <r>  0.0022  0.0573  0.1476 </r>
       </set>
       <set comment="band 9">
        <r>  0.0000  0.4998  0.1357 </r>
       </set>
      </set>
      <set comment="kpoint 56">
       <set comment="band 1">
        <r>  0.0956  0.0522  0.7668 </r>
       </set>
       <set comment="band 2">
        <r>  0.0003  0.0309  0.8819 </r>
       </set>
       <set comment="band 3">
        <r>  0.0216  0.1347  0.7531 </r>
       </set>
       <set comment="band 4">
        <r>  0.0012  0.0267  0.9226 </r>
       </set>
       <set comment="band 5">
        <r>  0.0007  0.0054  0.9676 </r>
       </set>
       <set comment="band 6">
        <r>  0.1197  0.3443  0.3793 </r>
       </set>
       <set comment="band 7">
        <r>  0.3239  0.2173  0.2816 </r>
       </set>
       <set comment="band 8">
        <r>  0.0581  0.3385  0.2398 </r>
       </set>
       <set comment="band 9">
        <r>  0.0823  0.2987  0.2218 </r>
       </set>
      </set>
      <set comment="kpoint 57">
       <set comment="band 1">
        <r>  0.0136  0.0276  0.8616 </r>
       </set>
       <set comment="band 2">
        <r>  0.0173  0.1030  0.7890 </r>
       </set>
       <set comment="band 3">
        <r>  0.0011  0.1055  0.8210 </r>
       </set>
       <set comment="band 4">
        <r>  0.0083  0.0113  0.9327 </r>
       </set>
       <set comment="band 5">
        <r>  0.0009  0.0036  0.9716 </r>
       </set>
       <set comment="band 6">
        <r>  0.1608  0.3769  0.2627 </r>
       </set>
       <set comment="band 7">
        <r>  0.1432  0.4155  0.2680 </r>
       </set>
       <set comment="band 8">
        <r>  0.2862  0.2179  0.2475 </r>
       </set>
       <set comment="band 9">
        <r>  0.0621  0.3693  0.2542 </r>
       </set>
      </set>
      <set comment="kpoint 58">
       <set comment="band 1">
        <r>  0.0629  0.0183  0.8399 </r>
       </set>
       <set comment="band 2">
        <r>  0.0022  0.0878  0.8059 </r>
       </set>
       <set comment="band 3">
        <r>  0.0153  0.1266  0.7788 </r>
       </set>
       <set comment="band 4">
        <r>  0.0000  0.0108  0.9448 </r>
       </set>
       <set comment="band 5">
        <r>  0.0000  0.0003  0.9774 </r>
       </set>
       <set comment="band 6">
        <r>  0.0146  0.4896  0.3095 </r>
       </set>
       <set comment="band 7">
        <r>  0.4186  0.1413  0.2721 </r>
       </set>
       <set comment="band 8">
        <r>  0.1348  0.2806  0.2768 </r>
       </set>
       <set comment="band 9">
        <r>  0.0000  0.5212  0.1422 </r>
       </set>
      </set>
      <set comment="kpoint 59">
       <set comment="band 1">
        <r>  0.1852  0.0031  0.7193 </r>
       </set>
       <set comment="band 2">
        <r>  0.0000  0.0001  0.9583 </r>
       </set>
       <set comment="band 3">
        <r>  0.0000  0.0001  0.9583 </r>
       </set>
       <set comment="band 4">
        <r>  0.0000  0.0006  0.9780 </r>
       </set>
       <set comment="band 5">
        <r>  0.0000  0.0006  0.9780 </r>
       </set>
       <set comment="band 6">
        <r>  0.0760  0.5923  0.0634 </r>
       </set>
       <set comment="band 7">
        <r>  0.4171  0.0916  0.3619 </r>
       </set>
       <set comment="band 8">
        <r>  0.0000  0.0288  0.0060 </r>
       </set>
       <set comment="band 9">
        <r>  0.0000  0.5588  0.0185 </r>
       </set>
      </set>
      <set comment="kpoint 60">
       <set comment="band 1">
        <r>  0.1454  0.0221  0.7450 </r>
       </set>
       <set comment="band 2">
        <r>  0.0001  0.0105  0.9293 </r>
       </set>
       <set comment="band 3">
        <r>  0.0000  0.0033  0.9527 </r>
       </set>
       <set comment="band 4">
        <r>  0.0011  0.1957  0.6983 </r>
       </set>
       <set comment="band 5">
        <r>  0.0000  0.0006  0.9768 </r>
       </set>
       <set comment="band 6">
        <r>  0.0171  0.4668  0.3208 </r>
       </set>
       <set comment="band 7">
        <r>  0.4742  0.0423  0.3688 </r>
       </set>
       <set comment="band 8">
        <r>  0.0122  0.1306  0.1672 </r>
       </set>
       <set comment="band 9">
        <r>  0.0503  0.3574  0.0480 </r>
       </set>
      </set>
     </set>
    </set>
   </array>
  </projected>
 </calculation>
 <structure name="finalpos" >
  <crystal>
   <varray name="basis" >
    <v>       0.00000000       1.95000000       1.95000000 </v>
    <v>       1.95000000       0.00000000       1.95000000 </v>
    <v>       1.95000000       1.95000000       0.00000000 </v>
   </varray>
   <i name="volume">     14.82975000 </i>
   <varray name="rec_basis" >
    <v>      -0.25641026       0.25641026       0.25641026 </v>
    <v>       0.25641026      -0.25641026       0.25641026 </v>
    <v>       0.25641026       0.25641026      -0.25641026 </v>
   </varray>
  </crystal>
  <varray name="positions" >
   <v>       0.00000000       0.00000000       0.00000000 </v>
  </varray>
 </structure>
</modeling>
