PROCAR lm decomposed
# of k-points:    4         # of bands:  12         # of ions:   2

 k-point    1 :    0.12500000 0.12500000 0.12500000     weight = 0.12500000

band   1 # energy   -1.85934721 # occ.  1.00000000
 
ion      s     py     pz     px    dxy    dyz    dz2    dxz    dx2    tot
  1  0.317  0.010  0.010  0.010  0.001  0.001  0.000  0.001  0.000  0.351
  2  0.317  0.010  0.010  0.010  0.001  0.001  0.000  0.001  0.000  0.351
tot  0.634  0.020  0.020  0.020  0.003  0.003  0.000  0.003  0.000  0.702
 
band   2 # energy    1.02467803 # occ.  1.00000000
 
ion      s     py     pz     px    dxy    dyz    dz2    dxz    dx2    tot
  1  0.000  0.003  0.000  0.006  0.000  0.002  0.027  0.001  0.408  0.448
  2  0.000  0.003  0.000  0.006  0.000  0.002  0.027  0.001  0.408  0.448
tot  0.000  0.007  0.001  0.012  0.000  0.004  0.054  0.002  0.816  0.895
 
band   3 # energy    1.02467803 # occ.  1.00000000
 
ion      s     py     pz     px    dxy    dyz    dz2    dxz    dx2    tot
  1  0.000  0.003  0.006  0.001  0.002  0.000  0.408  0.001  0.027  0.448
  2  0.000  0.003  0.006  0.001  0.002  0.000  0.408  0.001  0.027  0.448
tot  0.000  0.006  0.012  0.001  0.004  0.000  0.816  0.002  0.054  0.895
 
band   4 # energy    2.80554637 # occ.  1.00000000
 
ion      s     py     pz     px    dxy    dyz    dz2    dxz    dx2    tot
  1  0.000  0.000  0.001  0.000  0.305  0.034  0.007  0.155  0.001  0.502
  2  0.000  0.000  0.001  0.000  0.305  0.034  0.007  0.155  0.001  0.502
tot  0.000  0.001  0.002  0.000  0.609  0.068  0.014  0.309  0.001  1.005
 
band   5 # energy    2.80554637 # occ.  1.00000000
 
ion      s     py     pz     px    dxy    dyz    dz2    dxz    dx2    tot
  1  0.000  0.001  0.000  0.001  0.024  0.295  0.001  0.174  0.007  0.502
  2  0.000  0.001  0.000  0.001  0.024  0.295  0.001  0.174  0.007  0.502
tot  0.000  0.001  0.000  0.002  0.048  0.590  0.001  0.348  0.014  1.005
 
band   6 # energy    3.51548595 # occ.  1.00000000
 
ion      s     py     pz     px    dxy    dyz    dz2    dxz    dx2    tot
  1  0.001  0.001  0.001  0.001  0.165  0.165  0.000  0.165  0.000  0.500
  2  0.001  0.001  0.001  0.001  0.165  0.165  0.000  0.165  0.000  0.500
tot  0.002  0.003  0.003  0.003  0.330  0.330  0.000  0.330  0.000  0.999
 
band   7 # energy    4.00157728 # occ.  1.00000000
 
ion      s     py     pz     px    dxy    dyz    dz2    dxz    dx2    tot
  1  0.005  0.004  0.004  0.004  0.157  0.157  0.000  0.157  0.000  0.486
  2  0.005  0.004  0.004  0.004  0.157  0.157  0.000  0.157  0.000  0.486
tot  0.010  0.007  0.007  0.007  0.314  0.314  0.000  0.314  0.000  0.972
 
band   8 # energy    4.00457482 # occ.  1.00000000
 
ion      s     py     pz     px    dxy    dyz    dz2    dxz    dx2    tot
  1  0.000  0.000  0.000  0.000  0.005  0.001  0.448  0.003  0.035  0.491
  2  0.000  0.000  0.000  0.000  0.005  0.001  0.448  0.003  0.035  0.491
tot  0.000  0.000  0.000  0.000  0.010  0.001  0.895  0.005  0.071  0.982
 
band   9 # energy    4.00457482 # occ.  1.00000000
 
ion      s     py     pz     px    dxy    dyz    dz2    dxz    dx2    tot
  1  0.000  0.000  0.000  0.000  0.000  0.005  0.035  0.003  0.448  0.491
  2  0.000  0.000  0.000  0.000  0.000  0.005  0.035  0.003  0.448  0.491
tot  0.000  0.000  0.000  0.000  0.001  0.010  0.071  0.006  0.895  0.982
 
band  10 # energy    4.95352450 # occ.  0.51635233
 
ion      s     py     pz     px    dxy    dyz    dz2    dxz    dx2    tot
  1  0.000  0.002  0.000  0.003  0.020  0.293  0.000  0.172  0.005  0.496
  2  0.000  0.002  0.000  0.003  0.020  0.293  0.000  0.172  0.005  0.496
tot  0.000  0.004  0.000  0.007  0.040  0.585  0.001  0.344  0.010  0.992
 
band  11 # energy    4.95352450 # occ.  0.51635232
 
ion      s     py     pz     px    dxy    dyz    dz2    dxz    dx2    tot
  1  0.000  0.002  0.003  0.000  0.303  0.031  0.005  0.151  0.000  0.496
  2  0.000  0.002  0.003  0.000  0.303  0.031  0.005  0.151  0.000  0.496
tot  0.000  0.003  0.007  0.001  0.606  0.061  0.010  0.302  0.001  0.992
 
band  12 # energy   13.76533827 # occ.  0.00000000
 
ion      s     py     pz     px    dxy    dyz    dz2    dxz    dx2    tot
  1  0.000  0.107  0.013  0.182  0.001  0.011  0.005  0.006  0.069  0.394
  2  0.000  0.107  0.013  0.182  0.001  0.011  0.005  0.006  0.069  0.394
tot  0.000  0.215  0.025  0.364  0.001  0.022  0.009  0.013  0.139  0.788
 

 k-point    2 :    0.37500000 0.12500000 0.12500000     weight = 0.37500000

band   1 # energy    0.10068433 # occ.  1.00000000
 
ion      s     py     pz     px    dxy    dyz    dz2    dxz    dx2    tot
  1  0.214  0.006  0.006  0.065  0.021  0.000  0.009  0.021  0.027  0.369
  2  0.214  0.006  0.006  0.065  0.021  0.000  0.009  0.021  0.027  0.369
tot  0.428  0.012  0.012  0.130  0.042  0.000  0.018  0.042  0.054  0.737
 
band   2 # energy    1.46477425 # occ.  1.00000000
 
ion      s     py     pz     px    dxy    dyz    dz2    dxz    dx2    tot
  1  0.037  0.001  0.001  0.054  0.026  0.000  0.072  0.026  0.215  0.431
  2  0.037  0.001  0.001  0.054  0.026  0.000  0.072  0.026  0.215  0.431
tot  0.073  0.002  0.002  0.108  0.051  0.001  0.143  0.051  0.430  0.863
 
band   3 # energy    1.72615923 # occ.  1.00000000
 
ion      s     py     pz     px    dxy    dyz    dz2    dxz    dx2    tot
  1  0.000  0.005  0.005  0.000  0.020  0.000  0.303  0.020  0.101  0.455
  2  0.000  0.005  0.005  0.000  0.020  0.000  0.303  0.020  0.101  0.455
tot  0.000  0.010  0.010  0.000  0.041  0.000  0.606  0.041  0.202  0.910
 
band   4 # energy    2.56852266 # occ.  1.00000000
 
ion      s     py     pz     px    dxy    dyz    dz2    dxz    dx2    tot
  1  0.000  0.005  0.005  0.000  0.144  0.000  0.138  0.144  0.046  0.482
  2  0.000  0.005  0.005  0.000  0.144  0.000  0.138  0.144  0.046  0.482
tot  0.000  0.011  0.011  0.000  0.288  0.000  0.275  0.288  0.092  0.965
 
band   5 # energy    2.72283329 # occ.  1.00000000
 
ion      s     py     pz     px    dxy    dyz    dz2    dxz    dx2    tot
  1  0.004  0.002  0.002  0.010  0.110  0.253  0.000  0.110  0.001  0.492
  2  0.004  0.002  0.002  0.010  0.110  0.253  0.000  0.110  0.001  0.492
tot  0.009  0.005  0.005  0.019  0.219  0.506  0.000  0.219  0.001  0.984
 
band   6 # energy    3.04957331 # occ.  1.00000000
 
ion      s     py     pz     px    dxy    dyz    dz2    dxz    dx2    tot
  1  0.003  0.005  0.005  0.001  0.130  0.166  0.011  0.130  0.034  0.486
  2  0.003  0.005  0.005  0.001  0.130  0.166  0.011  0.130  0.034  0.486
tot  0.006  0.010  0.010  0.002  0.260  0.332  0.023  0.260  0.068  0.972
 
band   7 # energy    3.56924492 # occ.  1.00000000
 
ion      s     py     pz     px    dxy    dyz    dz2    dxz    dx2    tot
  1  0.000  0.001  0.001  0.000  0.097  0.000  0.220  0.097  0.073  0.490
  2  0.000  0.001  0.001  0.000  0.097  0.000  0.220  0.097  0.073  0.490
tot  0.000  0.003  0.003  0.000  0.194  0.000  0.439  0.194  0.146  0.979
 
band   8 # energy    3.84842031 # occ.  1.00000000
 
ion      s     py     pz     px    dxy    dyz    dz2    dxz    dx2    tot
  1  0.000  0.007  0.007  0.000  0.212  0.000  0.038  0.212  0.013  0.488
  2  0.000  0.007  0.007  0.000  0.212  0.000  0.038  0.212  0.013  0.488
tot  0.000  0.014  0.014  0.000  0.423  0.000  0.076  0.423  0.025  0.975
 
band   9 # energy    4.38327653 # occ.  1.00000000
 
ion      s     py     pz     px    dxy    dyz    dz2    dxz    dx2    tot
  1  0.001  0.002  0.002  0.000  0.081  0.167  0.042  0.081  0.127  0.503
  2  0.001  0.002  0.002  0.000  0.081  0.167  0.042  0.081  0.127  0.503
tot  0.001  0.003  0.003  0.001  0.162  0.334  0.085  0.162  0.254  1.005
 
band  10 # energy    4.63198989 # occ.  1.00002368
 
ion      s     py     pz     px    dxy    dyz    dz2    dxz    dx2    tot
  1  0.024  0.004  0.004  0.013  0.033  0.079  0.074  0.033  0.223  0.487
  2  0.024  0.004  0.004  0.013  0.033  0.079  0.074  0.033  0.223  0.487
tot  0.048  0.008  0.008  0.026  0.066  0.157  0.148  0.066  0.445  0.973
 
band  11 # energy    4.79835292 # occ.  1.02440630
 
ion      s     py     pz     px    dxy    dyz    dz2    dxz    dx2    tot
  1  0.005  0.000  0.000  0.004  0.065  0.319  0.010  0.065  0.029  0.496
  2  0.005  0.000  0.000  0.004  0.065  0.319  0.010  0.065  0.029  0.496
tot  0.010  0.000  0.000  0.007  0.130  0.638  0.019  0.130  0.058  0.992
 
band  12 # energy    7.87064977 # occ.  0.00000000
 
ion      s     py     pz     px    dxy    dyz    dz2    dxz    dx2    tot
  1  0.088  0.010  0.010  0.125  0.018  0.009  0.035  0.018  0.105  0.419
  2  0.088  0.010  0.010  0.125  0.018  0.009  0.035  0.018  0.105  0.419
tot  0.176  0.020  0.020  0.250  0.036  0.019  0.070  0.036  0.211  0.837
 

 k-point    3 :    0.37500000 0.37500000 0.12500000     weight = 0.37500000

band   1 # energy    0.71294133 # occ.  1.00000000
 
ion      s     py     pz     px    dxy    dyz    dz2    dxz    dx2    tot
  1  0.096  0.011  0.008  0.011  0.211  0.001  0.090  0.001  0.000  0.428
  2  0.096  0.011  0.008  0.011  0.211  0.001  0.090  0.001  0.000  0.428
tot  0.191  0.022  0.016  0.022  0.422  0.001  0.180  0.001  0.000  0.855
 
band   2 # energy    1.04272650 # occ.  1.00000000
 
ion      s     py     pz     px    dxy    dyz    dz2    dxz    dx2    tot
  1  0.040  0.004  0.006  0.004  0.216  0.003  0.174  0.003  0.000  0.449
  2  0.040  0.004  0.006  0.004  0.216  0.003  0.174  0.003  0.000  0.449
tot  0.080  0.008  0.012  0.008  0.433  0.005  0.347  0.005  0.000  0.898
 
band   3 # energy    2.07424295 # occ.  1.00000000
 
ion      s     py     pz     px    dxy    dyz    dz2    dxz    dx2    tot
  1  0.000  0.002  0.000  0.002  0.000  0.243  0.000  0.243  0.005  0.494
  2  0.000  0.002  0.000  0.002  0.000  0.243  0.000  0.243  0.005  0.494
tot  0.000  0.004  0.000  0.004  0.000  0.486  0.000  0.486  0.009  0.988
 
band   4 # energy    2.26772235 # occ.  1.00000000
 
ion      s     py     pz     px    dxy    dyz    dz2    dxz    dx2    tot
  1  0.001  0.001  0.005  0.001  0.003  0.227  0.025  0.227  0.000  0.491
  2  0.001  0.001  0.005  0.001  0.003  0.227  0.025  0.227  0.000  0.491
tot  0.003  0.003  0.010  0.003  0.007  0.454  0.050  0.454  0.000  0.983
 
band   5 # energy    2.96929852 # occ.  1.00000000
 
ion      s     py     pz     px    dxy    dyz    dz2    dxz    dx2    tot
  1  0.000  0.032  0.000  0.032  0.000  0.021  0.000  0.021  0.347  0.453
  2  0.000  0.032  0.000  0.032  0.000  0.021  0.000  0.021  0.347  0.453
tot  0.000  0.064  0.000  0.064  0.000  0.042  0.000  0.042  0.693  0.906
 
band   6 # energy    3.40231088 # occ.  1.00000000
 
ion      s     py     pz     px    dxy    dyz    dz2    dxz    dx2    tot
  1  0.040  0.054  0.000  0.054  0.043  0.092  0.052  0.092  0.000  0.427
  2  0.040  0.054  0.000  0.054  0.043  0.092  0.052  0.092  0.000  0.427
tot  0.080  0.108  0.000  0.108  0.087  0.183  0.104  0.183  0.000  0.853
 
band   7 # energy    4.03433409 # occ.  1.00000000
 
ion      s     py     pz     px    dxy    dyz    dz2    dxz    dx2    tot
  1  0.006  0.001  0.001  0.001  0.194  0.013  0.266  0.013  0.000  0.496
  2  0.006  0.001  0.001  0.001  0.194  0.013  0.266  0.013  0.000  0.496
tot  0.013  0.002  0.002  0.002  0.389  0.027  0.532  0.027  0.000  0.992
 
band   8 # energy    4.08399250 # occ.  1.00000000
 
ion      s     py     pz     px    dxy    dyz    dz2    dxz    dx2    tot
  1  0.002  0.000  0.000  0.000  0.138  0.009  0.339  0.009  0.000  0.499
  2  0.002  0.000  0.000  0.000  0.138  0.009  0.339  0.009  0.000  0.499
tot  0.004  0.001  0.001  0.001  0.277  0.018  0.677  0.018  0.000  0.997
 
band   9 # energy    4.24951830 # occ.  1.00000000
 
ion      s     py     pz     px    dxy    dyz    dz2    dxz    dx2    tot
  1  0.000  0.000  0.000  0.000  0.000  0.003  0.000  0.003  0.496  0.501
  2  0.000  0.000  0.000  0.000  0.000  0.003  0.000  0.003  0.496  0.501
tot  0.000  0.000  0.000  0.000  0.000  0.005  0.000  0.005  0.992  1.003
 
band  10 # energy    4.93972400 # occ.  0.63133513
 
ion      s     py     pz     px    dxy    dyz    dz2    dxz    dx2    tot
  1  0.000  0.009  0.000  0.009  0.000  0.193  0.000  0.193  0.090  0.494
  2  0.000  0.009  0.000  0.009  0.000  0.193  0.000  0.193  0.090  0.494
tot  0.000  0.018  0.000  0.018  0.000  0.386  0.000  0.386  0.180  0.988
 
band  11 # energy    5.83868048 # occ.  0.00000000
 
ion      s     py     pz     px    dxy    dyz    dz2    dxz    dx2    tot
  1  0.029  0.032  0.005  0.032  0.064  0.147  0.001  0.147  0.000  0.457
  2  0.029  0.032  0.005  0.032  0.064  0.147  0.001  0.147  0.000  0.457
tot  0.057  0.064  0.010  0.064  0.128  0.294  0.002  0.294  0.000  0.914
 
band  12 # energy    8.47013836 # occ.  0.00000000
 
ion      s     py     pz     px    dxy    dyz    dz2    dxz    dx2    tot
  1  0.000  0.122  0.000  0.122  0.000  0.039  0.000  0.039  0.074  0.396
  2  0.000  0.122  0.000  0.122  0.000  0.039  0.000  0.039  0.074  0.396
tot  0.000  0.244  0.000  0.244  0.000  0.077  0.000  0.077  0.148  0.791
 

 k-point    4 :    0.37500000 0.37500000 0.37500000     weight = 0.12500000

band   1 # energy    1.62911867 # occ.  1.00000000
 
ion      s     py     pz     px    dxy    dyz    dz2    dxz    dx2    tot
  1  0.017  0.003  0.003  0.003  0.150  0.150  0.000  0.150  0.000  0.477
  2  0.017  0.003  0.003  0.003  0.150  0.150  0.000  0.150  0.000  0.477
tot  0.035  0.006  0.006  0.006  0.300  0.300  0.000  0.300  0.000  0.954
 
band   2 # energy    2.00781666 # occ.  1.00000000
 
ion      s     py     pz     px    dxy    dyz    dz2    dxz    dx2    tot
  1  0.000  0.008  0.014  0.006  0.204  0.094  0.021  0.125  0.008  0.480
  2  0.000  0.008  0.014  0.006  0.204  0.094  0.021  0.125  0.008  0.480
tot  0.000  0.017  0.027  0.013  0.408  0.187  0.042  0.250  0.016  0.960
 
band   3 # energy    2.00781666 # occ.  1.00000000
 
ion      s     py     pz     px    dxy    dyz    dz2    dxz    dx2    tot
  1  0.000  0.011  0.005  0.013  0.078  0.188  0.008  0.157  0.021  0.480
  2  0.000  0.011  0.005  0.013  0.078  0.188  0.008  0.157  0.021  0.480
tot  0.000  0.021  0.010  0.025  0.155  0.376  0.016  0.313  0.042  0.960
 
band   4 # energy    2.14115689 # occ.  1.00000000
 
ion      s     py     pz     px    dxy    dyz    dz2    dxz    dx2    tot
  1  0.055  0.031  0.031  0.031  0.094  0.094  0.000  0.094  0.000  0.430
  2  0.055  0.031  0.031  0.031  0.094  0.094  0.000  0.094  0.000  0.430
tot  0.111  0.062  0.062  0.062  0.188  0.188  0.000  0.188  0.000  0.861
 
band   5 # energy    2.27852616 # occ.  1.00000000
 
ion      s     py     pz     px    dxy    dyz    dz2    dxz    dx2    tot
  1  0.000  0.030  0.030  0.000  0.141  0.001  0.082  0.141  0.028  0.454
  2  0.000  0.030  0.030  0.000  0.141  0.001  0.082  0.141  0.028  0.454
tot  0.000  0.060  0.061  0.001  0.283  0.003  0.164  0.282  0.055  0.908
 
band   6 # energy    2.27852617 # occ.  1.00000000
 
ion      s     py     pz     px    dxy    dyz    dz2    dxz    dx2    tot
  1  0.000  0.010  0.010  0.040  0.048  0.188  0.028  0.048  0.082  0.454
  2  0.000  0.010  0.010  0.040  0.048  0.188  0.028  0.048  0.082  0.454
tot  0.000  0.021  0.021  0.080  0.096  0.376  0.055  0.096  0.164  0.909
 
band   7 # energy    4.26687942 # occ.  1.00000000
 
ion      s     py     pz     px    dxy    dyz    dz2    dxz    dx2    tot
  1  0.000  0.000  0.000  0.000  0.004  0.014  0.078  0.015  0.391  0.503
  2  0.000  0.000  0.000  0.000  0.004  0.014  0.078  0.015  0.391  0.503
tot  0.000  0.000  0.000  0.000  0.007  0.027  0.156  0.031  0.783  1.005
 
band   8 # energy    4.26687942 # occ.  1.00000000
 
ion      s     py     pz     px    dxy    dyz    dz2    dxz    dx2    tot
  1  0.000  0.000  0.000  0.000  0.018  0.008  0.391  0.006  0.078  0.503
  2  0.000  0.000  0.000  0.000  0.018  0.008  0.391  0.006  0.078  0.503
tot  0.000  0.000  0.000  0.000  0.036  0.016  0.783  0.013  0.156  1.005
 
band   9 # energy    4.30891180 # occ.  1.00000000
 
ion      s     py     pz     px    dxy    dyz    dz2    dxz    dx2    tot
  1  0.000  0.002  0.002  0.000  0.060  0.001  0.281  0.060  0.095  0.502
  2  0.000  0.002  0.002  0.000  0.060  0.001  0.281  0.060  0.095  0.502
tot  0.000  0.004  0.004  0.000  0.121  0.001  0.561  0.121  0.191  1.004
 
band  10 # energy    4.30891181 # occ.  1.00000000
 
ion      s     py     pz     px    dxy    dyz    dz2    dxz    dx2    tot
  1  0.000  0.001  0.001  0.003  0.021  0.080  0.095  0.021  0.281  0.502
  2  0.000  0.001  0.001  0.003  0.021  0.080  0.095  0.021  0.281  0.502
tot  0.000  0.001  0.001  0.006  0.041  0.161  0.191  0.041  0.561  1.004
 
band  11 # energy    8.46590365 # occ.  0.00000000
 
ion      s     py     pz     px    dxy    dyz    dz2    dxz    dx2    tot
  1  0.060  0.037  0.037  0.037  0.082  0.082  0.000  0.082  0.000  0.419
  2  0.060  0.037  0.037  0.037  0.082  0.082  0.000  0.082  0.000  0.419
tot  0.119  0.074  0.074  0.074  0.165  0.165  0.000  0.165  0.000  0.837
 
band  12 # energy   12.04691816 # occ.  0.00000000
 
ion      s     py     pz     px    dxy    dyz    dz2    dxz    dx2    tot
  1  0.000  0.108  0.108  0.001  0.073  0.001  0.020  0.073  0.007  0.389
  2  0.000  0.108  0.108  0.001  0.073  0.001  0.020  0.073  0.007  0.389
tot  0.000  0.215  0.216  0.002  0.146  0.002  0.039  0.145  0.013  0.778
 
# of k-points:    4         # of bands:  12         # of ions:   2

 k-point    1 :    0.12500000 0.12500000 0.12500000     weight = 0.12500000

band   1 # energy   -1.71893931 # occ.  1.00000000
 
ion      s     py     pz     px    dxy    dyz    dz2    dxz    dx2    tot
  1  0.316  0.010  0.010  0.010  0.001  0.001  0.000  0.001  0.000  0.349
  2  0.316  0.010  0.010  0.010  0.001  0.001  0.000  0.001  0.000  0.349
tot  0.633  0.020  0.020  0.020  0.002  0.002  0.000  0.002  0.000  0.699
 
band   2 # energy    2.87302222 # occ.  1.00000000
 
ion      s     py     pz     px    dxy    dyz    dz2    dxz    dx2    tot
  1  0.000  0.011  0.001  0.004  0.000  0.001  0.053  0.003  0.357  0.430
  2  0.000  0.011  0.001  0.004  0.000  0.001  0.053  0.003  0.357  0.430
tot  0.000  0.022  0.003  0.009  0.001  0.002  0.105  0.006  0.713  0.860
 
band   3 # energy    2.87302224 # occ.  1.00000000
 
ion      s     py     pz     px    dxy    dyz    dz2    dxz    dx2    tot
  1  0.000  0.000  0.010  0.007  0.003  0.002  0.357  0.000  0.053  0.430
  2  0.000  0.000  0.010  0.007  0.003  0.002  0.357  0.000  0.053  0.430
tot  0.000  0.001  0.019  0.013  0.005  0.004  0.713  0.000  0.105  0.860
 
band   4 # energy    4.72956552 # occ.  1.00293692
 
ion      s     py     pz     px    dxy    dyz    dz2    dxz    dx2    tot
  1  0.000  0.000  0.001  0.001  0.241  0.251  0.004  0.004  0.001  0.503
  2  0.000  0.000  0.001  0.001  0.241  0.251  0.004  0.004  0.001  0.503
tot  0.000  0.000  0.002  0.002  0.481  0.502  0.008  0.008  0.003  1.006
 
band   5 # energy    4.72956552 # occ.  1.00293692
 
ion      s     py     pz     px    dxy    dyz    dz2    dxz    dx2    tot
  1  0.000  0.001  0.000  0.000  0.090  0.079  0.001  0.326  0.004  0.503
  2  0.000  0.001  0.000  0.000  0.090  0.079  0.001  0.326  0.004  0.503
tot  0.000  0.003  0.001  0.001  0.179  0.159  0.003  0.653  0.008  1.006
 
band   6 # energy    5.53636083 # occ.  0.00000000
 
ion      s     py     pz     px    dxy    dyz    dz2    dxz    dx2    tot
  1  0.000  0.002  0.002  0.002  0.165  0.165  0.000  0.165  0.000  0.501
  2  0.000  0.002  0.002  0.002  0.165  0.165  0.000  0.165  0.000  0.501
tot  0.001  0.003  0.003  0.003  0.331  0.331  0.000  0.331  0.000  1.002
 
band   7 # energy    5.98355135 # occ.  0.00000000
 
ion      s     py     pz     px    dxy    dyz    dz2    dxz    dx2    tot
  1  0.008  0.006  0.006  0.006  0.152  0.152  0.000  0.152  0.000  0.481
  2  0.008  0.006  0.006  0.006  0.152  0.152  0.000  0.152  0.000  0.481
tot  0.016  0.011  0.011  0.011  0.304  0.304  0.000  0.304  0.000  0.962
 
band   8 # energy    6.72400174 # occ.  0.00000000
 
ion      s     py     pz     px    dxy    dyz    dz2    dxz    dx2    tot
  1  0.000  0.000  0.000  0.000  0.001  0.001  0.132  0.004  0.351  0.489
  2  0.000  0.000  0.000  0.000  0.001  0.001  0.132  0.004  0.351  0.489
tot  0.000  0.000  0.000  0.000  0.002  0.002  0.263  0.008  0.703  0.978
 
band   9 # energy    6.72400174 # occ.  0.00000000
 
ion      s     py     pz     px    dxy    dyz    dz2    dxz    dx2    tot
  1  0.000  0.000  0.000  0.000  0.003  0.003  0.351  0.000  0.132  0.489
  2  0.000  0.000  0.000  0.000  0.003  0.003  0.351  0.000  0.132  0.489
tot  0.000  0.000  0.000  0.000  0.006  0.006  0.703  0.000  0.263  0.978
 
band  10 # energy    7.15278042 # occ.  0.00000000
 
ion      s     py     pz     px    dxy    dyz    dz2    dxz    dx2    tot
  1  0.000  0.005  0.001  0.002  0.041  0.127  0.001  0.310  0.008  0.495
  2  0.000  0.005  0.001  0.002  0.041  0.127  0.001  0.310  0.008  0.495
tot  0.000  0.011  0.001  0.004  0.082  0.253  0.002  0.620  0.016  0.990
 
band  11 # energy    7.15278047 # occ.  0.00000000
 
ion      s     py     pz     px    dxy    dyz    dz2    dxz    dx2    tot
  1  0.000  0.000  0.005  0.003  0.277  0.192  0.008  0.008  0.001  0.495
  2  0.000  0.000  0.005  0.003  0.277  0.192  0.008  0.008  0.001  0.495
tot  0.000  0.000  0.010  0.007  0.555  0.383  0.016  0.017  0.002  0.990
 
band  12 # energy   14.41066526 # occ.  0.00000000
 
ion      s     py     pz     px    dxy    dyz    dz2    dxz    dx2    tot
  1  0.000  0.191  0.025  0.078  0.002  0.007  0.010  0.016  0.070  0.398
  2  0.000  0.191  0.025  0.078  0.002  0.007  0.010  0.016  0.070  0.398
tot  0.000  0.381  0.050  0.155  0.004  0.013  0.021  0.032  0.139  0.797
 

 k-point    2 :    0.37500000 0.12500000 0.12500000     weight = 0.37500000

band   1 # energy    0.40631190 # occ.  1.00000000
 
ion      s     py     pz     px    dxy    dyz    dz2    dxz    dx2    tot
  1  0.228  0.007  0.007  0.073  0.011  0.000  0.005  0.011  0.014  0.357
  2  0.228  0.007  0.007  0.073  0.011  0.000  0.005  0.011  0.014  0.357
tot  0.456  0.014  0.014  0.146  0.022  0.000  0.010  0.022  0.029  0.714
 
band   2 # energy    2.75552144 # occ.  1.00000000
 
ion      s     py     pz     px    dxy    dyz    dz2    dxz    dx2    tot
  1  0.059  0.002  0.002  0.086  0.025  0.000  0.050  0.025  0.151  0.401
  2  0.059  0.002  0.002  0.086  0.025  0.000  0.050  0.025  0.151  0.401
tot  0.118  0.005  0.005  0.173  0.050  0.000  0.101  0.050  0.302  0.802
 
band   3 # energy    3.69115965 # occ.  1.00000000
 
ion      s     py     pz     px    dxy    dyz    dz2    dxz    dx2    tot
  1  0.000  0.009  0.009  0.000  0.034  0.000  0.266  0.034  0.089  0.441
  2  0.000  0.009  0.009  0.000  0.034  0.000  0.266  0.034  0.089  0.441
tot  0.000  0.019  0.019  0.000  0.067  0.000  0.532  0.067  0.177  0.882
 
band   4 # energy    4.48065323 # occ.  1.00000000
 
ion      s     py     pz     px    dxy    dyz    dz2    dxz    dx2    tot
  1  0.000  0.008  0.008  0.000  0.180  0.000  0.079  0.180  0.026  0.480
  2  0.000  0.008  0.008  0.000  0.180  0.000  0.079  0.180  0.026  0.480
tot  0.000  0.016  0.016  0.000  0.359  0.000  0.158  0.359  0.053  0.961
 
band   5 # energy    4.54255474 # occ.  1.00000004
 
ion      s     py     pz     px    dxy    dyz    dz2    dxz    dx2    tot
  1  0.001  0.003  0.003  0.008  0.125  0.229  0.000  0.125  0.000  0.493
  2  0.001  0.003  0.003  0.008  0.125  0.229  0.000  0.125  0.000  0.493
tot  0.002  0.005  0.005  0.017  0.249  0.458  0.000  0.249  0.000  0.987
 
band   6 # energy    4.93754923 # occ.  0.66470820
 
ion      s     py     pz     px    dxy    dyz    dz2    dxz    dx2    tot
  1  0.003  0.008  0.008  0.004  0.127  0.168  0.009  0.127  0.028  0.480
  2  0.003  0.008  0.008  0.004  0.127  0.168  0.009  0.127  0.028  0.480
tot  0.005  0.016  0.016  0.007  0.254  0.336  0.018  0.254  0.055  0.961
 
band   7 # energy    5.95182847 # occ.  0.00000000
 
ion      s     py     pz     px    dxy    dyz    dz2    dxz    dx2    tot
  1  0.000  0.008  0.008  0.000  0.193  0.000  0.063  0.193  0.021  0.484
  2  0.000  0.008  0.008  0.000  0.193  0.000  0.063  0.193  0.021  0.484
tot  0.000  0.015  0.015  0.000  0.386  0.000  0.125  0.386  0.042  0.968
 
band   8 # energy    6.01026191 # occ.  0.00000000
 
ion      s     py     pz     px    dxy    dyz    dz2    dxz    dx2    tot
  1  0.000  0.000  0.000  0.000  0.059  0.000  0.272  0.059  0.091  0.482
  2  0.000  0.000  0.000  0.000  0.059  0.000  0.272  0.059  0.091  0.482
tot  0.000  0.001  0.001  0.000  0.119  0.000  0.543  0.119  0.181  0.963
 
band   9 # energy    6.52237848 # occ.  0.00000000
 
ion      s     py     pz     px    dxy    dyz    dz2    dxz    dx2    tot
  1  0.001  0.005  0.005  0.004  0.107  0.267  0.001  0.107  0.003  0.498
  2  0.001  0.005  0.005  0.004  0.107  0.267  0.001  0.107  0.003  0.498
tot  0.002  0.009  0.009  0.008  0.213  0.534  0.002  0.213  0.005  0.997
 
band  10 # energy    7.03852262 # occ.  0.00000000
 
ion      s     py     pz     px    dxy    dyz    dz2    dxz    dx2    tot
  1  0.005  0.000  0.000  0.002  0.061  0.310  0.014  0.061  0.042  0.496
  2  0.005  0.000  0.000  0.002  0.061  0.310  0.014  0.061  0.042  0.496
tot  0.009  0.000  0.000  0.005  0.123  0.620  0.028  0.123  0.084  0.993
 
band  11 # energy    7.25545844 # occ.  0.00000000
 
ion      s     py     pz     px    dxy    dyz    dz2    dxz    dx2    tot
  1  0.011  0.001  0.001  0.004  0.000  0.003  0.120  0.000  0.361  0.499
  2  0.011  0.001  0.001  0.004  0.000  0.003  0.120  0.000  0.361  0.499
tot  0.021  0.001  0.001  0.008  0.000  0.005  0.241  0.000  0.722  0.998
 
band  12 # energy    9.32379224 # occ.  0.00000000
 
ion      s     py     pz     px    dxy    dyz    dz2    dxz    dx2    tot
  1  0.066  0.008  0.008  0.092  0.021  0.016  0.053  0.021  0.160  0.446
  2  0.066  0.008  0.008  0.092  0.021  0.016  0.053  0.021  0.160  0.446
tot  0.131  0.017  0.017  0.184  0.042  0.033  0.106  0.042  0.319  0.891
 

 k-point    3 :    0.37500000 0.37500000 0.12500000     weight = 0.37500000

band   1 # energy    1.65119974 # occ.  1.00000000
 
ion      s     py     pz     px    dxy    dyz    dz2    dxz    dx2    tot
  1  0.136  0.026  0.009  0.026  0.149  0.002  0.048  0.002  0.000  0.398
  2  0.136  0.026  0.009  0.026  0.149  0.002  0.048  0.002  0.000  0.398
tot  0.273  0.052  0.019  0.052  0.298  0.003  0.096  0.003  0.000  0.796
 
band   2 # energy    2.48326031 # occ.  1.00000000
 
ion      s     py     pz     px    dxy    dyz    dz2    dxz    dx2    tot
  1  0.057  0.005  0.008  0.005  0.226  0.002  0.129  0.002  0.000  0.435
  2  0.057  0.005  0.008  0.005  0.226  0.002  0.129  0.002  0.000  0.435
tot  0.114  0.011  0.016  0.011  0.451  0.005  0.258  0.005  0.000  0.870
 
band   3 # energy    3.84769025 # occ.  1.00000000
 
ion      s     py     pz     px    dxy    dyz    dz2    dxz    dx2    tot
  1  0.000  0.002  0.000  0.002  0.000  0.242  0.000  0.242  0.003  0.492
  2  0.000  0.002  0.000  0.002  0.000  0.242  0.000  0.242  0.003  0.492
tot  0.000  0.004  0.000  0.004  0.000  0.485  0.000  0.485  0.006  0.984
 
band   4 # energy    4.03955410 # occ.  1.00000000
 
ion      s     py     pz     px    dxy    dyz    dz2    dxz    dx2    tot
  1  0.001  0.002  0.007  0.002  0.001  0.228  0.018  0.228  0.000  0.489
  2  0.001  0.002  0.007  0.002  0.001  0.228  0.018  0.228  0.000  0.489
tot  0.002  0.004  0.014  0.004  0.002  0.457  0.037  0.457  0.000  0.977
 
band   5 # energy    4.55624313 # occ.  1.00000011
 
ion      s     py     pz     px    dxy    dyz    dz2    dxz    dx2    tot
  1  0.000  0.072  0.000  0.072  0.000  0.030  0.000  0.030  0.204  0.408
  2  0.000  0.072  0.000  0.072  0.000  0.030  0.000  0.030  0.204  0.408
tot  0.000  0.143  0.000  0.143  0.000  0.060  0.000  0.060  0.408  0.816
 
band   6 # energy    4.57261418 # occ.  1.00000038
 
ion      s     py     pz     px    dxy    dyz    dz2    dxz    dx2    tot
  1  0.017  0.061  0.001  0.061  0.134  0.047  0.050  0.047  0.000  0.419
  2  0.017  0.061  0.001  0.061  0.134  0.047  0.050  0.047  0.000  0.419
tot  0.035  0.122  0.001  0.122  0.268  0.094  0.101  0.094  0.000  0.839
 
band   7 # energy    6.46507193 # occ.  0.00000000
 
ion      s     py     pz     px    dxy    dyz    dz2    dxz    dx2    tot
  1  0.005  0.000  0.001  0.000  0.165  0.010  0.303  0.010  0.000  0.493
  2  0.005  0.000  0.001  0.000  0.165  0.010  0.303  0.010  0.000  0.493
tot  0.011  0.001  0.001  0.001  0.329  0.019  0.606  0.019  0.000  0.987
 
band   8 # energy    6.66609627 # occ.  0.00000000
 
ion      s     py     pz     px    dxy    dyz    dz2    dxz    dx2    tot
  1  0.002  0.000  0.000  0.000  0.108  0.006  0.375  0.006  0.000  0.497
  2  0.002  0.000  0.000  0.000  0.108  0.006  0.375  0.006  0.000  0.497
tot  0.004  0.000  0.000  0.000  0.216  0.011  0.749  0.011  0.000  0.993
 
band   9 # energy    7.03558263 # occ.  0.00000000
 
ion      s     py     pz     px    dxy    dyz    dz2    dxz    dx2    tot
  1  0.000  0.000  0.000  0.000  0.000  0.002  0.000  0.002  0.498  0.502
  2  0.000  0.000  0.000  0.000  0.000  0.002  0.000  0.002  0.498  0.502
tot  0.000  0.000  0.000  0.000  0.000  0.004  0.000  0.004  0.995  1.003
 
band  10 # energy    7.27660586 # occ.  0.00000000
 
ion      s     py     pz     px    dxy    dyz    dz2    dxz    dx2    tot
  1  0.000  0.005  0.000  0.005  0.000  0.157  0.000  0.157  0.173  0.498
  2  0.000  0.005  0.000  0.005  0.000  0.157  0.000  0.157  0.173  0.498
tot  0.000  0.011  0.000  0.011  0.000  0.314  0.000  0.314  0.346  0.996
 
band  11 # energy    7.73522209 # occ.  0.00000000
 
ion      s     py     pz     px    dxy    dyz    dz2    dxz    dx2    tot
  1  0.008  0.015  0.005  0.015  0.050  0.193  0.000  0.193  0.000  0.481
  2  0.008  0.015  0.005  0.015  0.050  0.193  0.000  0.193  0.000  0.481
tot  0.017  0.030  0.010  0.030  0.100  0.387  0.000  0.387  0.000  0.962
 
band  12 # energy    9.65126868 # occ.  0.00000000
 
ion      s     py     pz     px    dxy    dyz    dz2    dxz    dx2    tot