PROCAR lm decomposed
# of k-points:    4         # of bands:  12         # of ions:   2

 k-point    1 :    0.12500000 0.12500000 0.12500000     weight = 0.12500000

band   1 # energy   -1.87962713 # occ.  1.00000000
 
ion      s     py     pz     px    dxy    dyz    dz2    dxz    dx2    tot
  1  0.317  0.010  0.010  0.010  0.001  0.001  0.000  0.001  0.000  0.351
  2  0.317  0.010  0.010  0.010  0.001  0.001  0.000  0.001  0.000  0.351
tot  0.635  0.020  0.020  0.020  0.003  0.003  0.000  0.003  0.000  0.703
 
band   2 # energy    1.01931650 # occ.  1.00000000
 
ion      s     py     pz     px    dxy    dyz    dz2    dxz    dx2    tot
  1  0.000  0.003  0.000  0.006  0.000  0.002  0.027  0.001  0.408  0.448
  2  0.000  0.003  0.000  0.006  0.000  0.002  0.027  0.001  0.408  0.448
tot  0.000  0.007  0.001  0.012  0.000  0.004  0.054  0.002  0.816  0.895
 
band   3 # energy    1.01931650 # occ.  1.00000000
 
ion      s     py     pz     px    dxy    dyz    dz2    dxz    dx2    tot
  1  0.000  0.003  0.006  0.001  0.002  0.000  0.408  0.001  0.027  0.448
  2  0.000  0.003  0.006  0.001  0.002  0.000  0.408  0.001  0.027  0.448
tot  0.000  0.006  0.012  0.001  0.004  0.000  0.816  0.002  0.054  0.895
 
band   4 # energy    2.74366045 # occ.  1.00000000
 
ion      s     py     pz     px    dxy    dyz    dz2    dxz    dx2    tot
  1  0.000  0.001  0.001  0.000  0.191  0.043  0.004  0.260  0.003  0.502
  2  0.000  0.001  0.001  0.000  0.191  0.043  0.004  0.260  0.003  0.502
tot  0.000  0.002  0.001  0.000  0.381  0.086  0.008  0.520  0.006  1.005
 
band   5 # energy    2.74366045 # occ.  1.00000000
 
ion      s     py     pz     px    dxy    dyz    dz2    dxz    dx2    tot
  1  0.000  0.000  0.000  0.001  0.139  0.286  0.003  0.069  0.004  0.502
  2  0.000  0.000  0.000  0.001  0.139  0.286  0.003  0.069  0.004  0.502
tot  0.000  0.000  0.001  0.002  0.277  0.572  0.006  0.138  0.008  1.005
 
band   6 # energy    3.45263009 # occ.  1.00000000
 
ion      s     py     pz     px    dxy    dyz    dz2    dxz    dx2    tot
  1  0.001  0.001  0.001  0.001  0.165  0.165  0.000  0.165  0.000  0.500
  2  0.001  0.001  0.001  0.001  0.165  0.165  0.000  0.165  0.000  0.500
tot  0.002  0.003  0.003  0.003  0.329  0.329  0.000  0.329  0.000  0.999
 
band   7 # energy    3.94095904 # occ.  1.00000000
 
ion      s     py     pz     px    dxy    dyz    dz2    dxz    dx2    tot
  1  0.005  0.004  0.004  0.004  0.157  0.157  0.000  0.157  0.000  0.486
  2  0.005  0.004  0.004  0.004  0.157  0.157  0.000  0.157  0.000  0.486
tot  0.010  0.007  0.007  0.007  0.314  0.314  0.000  0.314  0.000  0.972
 
band   8 # energy    4.00213229 # occ.  1.00000000
 
ion      s     py     pz     px    dxy    dyz    dz2    dxz    dx2    tot
  1  0.000  0.000  0.000  0.000  0.003  0.000  0.302  0.004  0.181  0.491
  2  0.000  0.000  0.000  0.000  0.003  0.000  0.302  0.004  0.181  0.491
tot  0.000  0.000  0.000  0.000  0.006  0.001  0.605  0.008  0.363  0.982
 
band   9 # energy    4.00213229 # occ.  1.00000000
 
ion      s     py     pz     px    dxy    dyz    dz2    dxz    dx2    tot
  1  0.000  0.000  0.000  0.000  0.002  0.004  0.181  0.001  0.302  0.491
  2  0.000  0.000  0.000  0.000  0.002  0.004  0.181  0.001  0.302  0.491
tot  0.000  0.000  0.000  0.000  0.004  0.009  0.363  0.002  0.605  0.982
 
band  10 # energy    4.89229771 # occ.  0.99545614
 
ion      s     py     pz     px    dxy    dyz    dz2    dxz    dx2    tot
  1  0.000  0.002  0.000  0.003  0.020  0.293  0.000  0.172  0.005  0.496
  2  0.000  0.002  0.000  0.003  0.020  0.293  0.000  0.172  0.005  0.496
tot  0.000  0.004  0.000  0.006  0.040  0.585  0.001  0.344  0.011  0.992
 
band  11 # energy    4.89229771 # occ.  0.99545614
 
ion      s     py     pz     px    dxy    dyz    dz2    dxz    dx2    tot
  1  0.000  0.002  0.003  0.000  0.303  0.031  0.005  0.151  0.000  0.496
  2  0.000  0.002  0.003  0.000  0.303  0.031  0.005  0.151  0.000  0.496
tot  0.000  0.003  0.007  0.001  0.606  0.061  0.011  0.302  0.001  0.992
 
band  12 # energy   13.74244044 # occ.  0.00000000
 
ion      s     py     pz     px    dxy    dyz    dz2    dxz    dx2    tot
  1  0.000  0.107  0.013  0.182  0.001  0.011  0.005  0.006  0.069  0.394
  2  0.000  0.107  0.013  0.182  0.001  0.011  0.005  0.006  0.069  0.394
tot  0.000  0.215  0.025  0.365  0.001  0.022  0.009  0.013  0.138  0.788
 

 k-point    2 :    0.37500000 0.12500000 0.12500000     weight = 0.37500000

band   1 # energy    0.07893935 # occ.  1.00000000
 
ion      s     py     pz     px    dxy    dyz    dz2    dxz    dx2    tot
  1  0.214  0.006  0.006  0.065  0.021  0.000  0.009  0.021  0.027  0.369
  2  0.214  0.006  0.006  0.065  0.021  0.000  0.009  0.021  0.027  0.369
tot  0.428  0.011  0.011  0.129  0.043  0.000  0.018  0.043  0.054  0.738
 
band   2 # energy    1.45075478 # occ.  1.00000000
 
ion      s     py     pz     px    dxy    dyz    dz2    dxz    dx2    tot
  1  0.037  0.001  0.001  0.054  0.027  0.000  0.071  0.027  0.213  0.432
  2  0.037  0.001  0.001  0.054  0.027  0.000  0.071  0.027  0.213  0.432
tot  0.074  0.002  0.002  0.108  0.054  0.001  0.142  0.054  0.426  0.863
 
band   3 # energy    1.71708422 # occ.  1.00000000
 
ion      s     py     pz     px    dxy    dyz    dz2    dxz    dx2    tot
  1  0.000  0.005  0.005  0.000  0.021  0.000  0.301  0.021  0.100  0.455
  2  0.000  0.005  0.005  0.000  0.021  0.000  0.301  0.021  0.100  0.455
tot  0.000  0.010  0.010  0.000  0.043  0.000  0.603  0.043  0.201  0.910
 
band   4 # energy    2.53010396 # occ.  1.00000000
 
ion      s     py     pz     px    dxy    dyz    dz2    dxz    dx2    tot
  1  0.000  0.006  0.006  0.000  0.151  0.000  0.128  0.151  0.043  0.483
  2  0.000  0.006  0.006  0.000  0.151  0.000  0.128  0.151  0.043  0.483
tot  0.000  0.011  0.011  0.000  0.301  0.000  0.256  0.301  0.085  0.966
 
band   5 # energy    2.66298179 # occ.  1.00000000
 
ion      s     py     pz     px    dxy    dyz    dz2    dxz    dx2    tot
  1  0.005  0.002  0.002  0.010  0.109  0.254  0.000  0.109  0.001  0.492
  2  0.005  0.002  0.002  0.010  0.109  0.254  0.000  0.109  0.001  0.492
tot  0.009  0.005  0.005  0.020  0.218  0.507  0.000  0.218  0.001  0.984
 
band   6 # energy    2.99474012 # occ.  1.00000000
 
ion      s     py     pz     px    dxy    dyz    dz2    dxz    dx2    tot
  1  0.003  0.005  0.005  0.001  0.129  0.167  0.012  0.129  0.035  0.486
  2  0.003  0.005  0.005  0.001  0.129  0.167  0.012  0.129  0.035  0.486
tot  0.006  0.010  0.010  0.003  0.257  0.334  0.023  0.257  0.070  0.972
 
band   7 # energy    3.54403863 # occ.  1.00000000
 
ion      s     py     pz     px    dxy    dyz    dz2    dxz    dx2    tot
  1  0.000  0.001  0.001  0.000  0.090  0.000  0.229  0.090  0.076  0.489
  2  0.000  0.001  0.001  0.000  0.090  0.000  0.229  0.090  0.076  0.489
tot  0.000  0.002  0.002  0.000  0.181  0.000  0.459  0.181  0.153  0.978
 
band   8 # energy    3.79391234 # occ.  1.00000000
 
ion      s     py     pz     px    dxy    dyz    dz2    dxz    dx2    tot
  1  0.000  0.007  0.007  0.000  0.211  0.000  0.039  0.211  0.013  0.488
  2  0.000  0.007  0.007  0.000  0.211  0.000  0.039  0.211  0.013  0.488
tot  0.000  0.014  0.014  0.000  0.421  0.000  0.079  0.421  0.026  0.975
 
band   9 # energy    4.33782792 # occ.  1.00000000
 
ion      s     py     pz     px    dxy    dyz    dz2    dxz    dx2    tot
  1  0.000  0.002  0.002  0.001  0.091  0.188  0.032  0.091  0.096  0.502
  2  0.000  0.002  0.002  0.001  0.091  0.188  0.032  0.091  0.096  0.502
tot  0.000  0.004  0.004  0.002  0.181  0.375  0.064  0.181  0.191  1.004
 
band  10 # energy    4.61248520 # occ.  1.00000192
 
ion      s     py     pz     px    dxy    dyz    dz2    dxz    dx2    tot
  1  0.025  0.004  0.004  0.012  0.023  0.057  0.085  0.023  0.254  0.487
  2  0.025  0.004  0.004  0.012  0.023  0.057  0.085  0.023  0.254  0.487
tot  0.049  0.007  0.007  0.025  0.047  0.115  0.169  0.047  0.508  0.975
 
band  11 # energy    4.74101853 # occ.  1.00234629
 
ion      s     py     pz     px    dxy    dyz    dz2    dxz    dx2    tot
  1  0.005  0.000  0.000  0.003  0.066  0.318  0.010  0.066  0.029  0.496
  2  0.005  0.000  0.000  0.003  0.066  0.318  0.010  0.066  0.029  0.496
tot  0.009  0.000  0.000  0.007  0.131  0.636  0.019  0.131  0.058  0.992
 
band  12 # energy    7.85099260 # occ.  0.00000000
 
ion      s     py     pz     px    dxy    dyz    dz2    dxz    dx2    tot
  1  0.089  0.010  0.010  0.125  0.018  0.009  0.035  0.018  0.106  0.419
  2  0.089  0.010  0.010  0.125  0.018  0.009  0.035  0.018  0.106  0.419
tot  0.177  0.020  0.020  0.251  0.035  0.018  0.071  0.035  0.212  0.838
 

 k-point    3 :    0.37500000 0.37500000 0.12500000     weight = 0.37500000

band   1 # energy    0.67876380 # occ.  1.00000000
 
ion      s     py     pz     px    dxy    dyz    dz2    dxz    dx2    tot
  1  0.095  0.011  0.008  0.011  0.214  0.001  0.088  0.001  0.000  0.428
  2  0.095  0.011  0.008  0.011  0.214  0.001  0.088  0.001  0.000  0.428
tot  0.191  0.022  0.016  0.022  0.428  0.001  0.177  0.001  0.000  0.856
 
band   2 # energy    1.01044474 # occ.  1.00000000
 
ion      s     py     pz     px    dxy    dyz    dz2    dxz    dx2    tot
  1  0.040  0.004  0.006  0.004  0.220  0.003  0.170  0.003  0.000  0.449
  2  0.040  0.004  0.006  0.004  0.220  0.003  0.170  0.003  0.000  0.449
tot  0.080  0.008  0.012  0.008  0.440  0.006  0.339  0.006  0.000  0.898
 
band   3 # energy    2.01398385 # occ.  1.00000000
 
ion      s     py     pz     px    dxy    dyz    dz2    dxz    dx2    tot
  1  0.000  0.002  0.000  0.002  0.000  0.243  0.000  0.243  0.004  0.494
  2  0.000  0.002  0.000  0.002  0.000  0.243  0.000  0.243  0.004  0.494
tot  0.000  0.003  0.000  0.003  0.000  0.486  0.000  0.486  0.009  0.988
 
band   4 # energy    2.21047278 # occ.  1.00000000
 
ion      s     py     pz     px    dxy    dyz    dz2    dxz    dx2    tot
  1  0.001  0.001  0.005  0.001  0.003  0.227  0.025  0.227  0.000  0.491
  2  0.001  0.001  0.005  0.001  0.003  0.227  0.025  0.227  0.000  0.491
tot  0.002  0.003  0.010  0.003  0.005  0.455  0.050  0.455  0.000  0.983
 
band   5 # energy    2.95840263 # occ.  1.00000000
 
ion      s     py     pz     px    dxy    dyz    dz2    dxz    dx2    tot
  1  0.000  0.032  0.000  0.032  0.000  0.022  0.000  0.022  0.344  0.453
  2  0.000  0.032  0.000  0.032  0.000  0.022  0.000  0.022  0.344  0.453
tot  0.000  0.065  0.000  0.065  0.000  0.044  0.000  0.044  0.687  0.905
 
band   6 # energy    3.36568526 # occ.  1.00000000
 
ion      s     py     pz     px    dxy    dyz    dz2    dxz    dx2    tot
  1  0.039  0.054  0.000  0.054  0.046  0.095  0.046  0.095  0.000  0.428
  2  0.039  0.054  0.000  0.054  0.046  0.095  0.046  0.095  0.000  0.428
tot  0.079  0.107  0.000  0.107  0.092  0.189  0.092  0.189  0.000  0.855
 
band   7 # energy    4.00444359 # occ.  1.00000000
 
ion      s     py     pz     px    dxy    dyz    dz2    dxz    dx2    tot
  1  0.006  0.001  0.001  0.001  0.192  0.013  0.270  0.013  0.000  0.496
  2  0.006  0.001  0.001  0.001  0.192  0.013  0.270  0.013  0.000  0.496
tot  0.012  0.002  0.002  0.002  0.384  0.026  0.540  0.026  0.000  0.992
 
band   8 # energy    4.06282844 # occ.  1.00000000
 
ion      s     py     pz     px    dxy    dyz    dz2    dxz    dx2    tot
  1  0.002  0.000  0.000  0.000  0.133  0.008  0.347  0.008  0.000  0.498
  2  0.002  0.000  0.000  0.000  0.133  0.008  0.347  0.008  0.000  0.498
tot  0.005  0.001  0.001  0.001  0.266  0.015  0.693  0.015  0.000  0.997
 
band   9 # energy    4.24603404 # occ.  1.00000000
 
ion      s     py     pz     px    dxy    dyz    dz2    dxz    dx2    tot
  1  0.000  0.000  0.000  0.000  0.000  0.003  0.000  0.003  0.496  0.501
  2  0.000  0.000  0.000  0.000  0.000  0.003  0.000  0.003  0.496  0.501
tot  0.000  0.000  0.000  0.000  0.000  0.005  0.000  0.005  0.993  1.003
 
band  10 # energy    4.88999445 # occ.  1.00068103
 
ion      s     py     pz     px    dxy    dyz    dz2    dxz    dx2    tot
  1  0.000  0.008  0.000  0.008  0.000  0.193  0.000  0.193  0.092  0.495
  2  0.000  0.008  0.000  0.008  0.000  0.193  0.000  0.193  0.092  0.495
tot  0.000  0.017  0.000  0.017  0.000  0.386  0.000  0.386  0.184  0.989
 
band  11 # energy    5.78949849 # occ.  0.00000000
 
ion      s     py     pz     px    dxy    dyz    dz2    dxz    dx2    tot
  1  0.029  0.033  0.005  0.033  0.064  0.146  0.001  0.146  0.000  0.456
  2  0.029  0.033  0.005  0.033  0.064  0.146  0.001  0.146  0.000  0.456
tot  0.059  0.065  0.010  0.065  0.128  0.291  0.002  0.291  0.000  0.912
 
band  12 # energy    8.44996228 # occ.  0.00000000
 
ion      s     py     pz     px    dxy    dyz    dz2    dxz    dx2    tot
  1  0.000  0.123  0.000  0.123  0.000  0.038  0.000  0.038  0.074  0.395
  2  0.000  0.123  0.000  0.123  0.000  0.038  0.000  0.038  0.074  0.395
tot  0.000  0.245  0.000  0.245  0.000  0.076  0.000  0.076  0.149  0.791
 

 k-point    4 :    0.37500000 0.37500000 0.37500000     weight = 0.12500000

band   1 # energy    1.57214566 # occ.  1.00000000
 
ion      s     py     pz     px    dxy    dyz    dz2    dxz    dx2    tot
  1  0.017  0.003  0.003  0.003  0.150  0.150  0.000  0.150  0.000  0.477
  2  0.017  0.003  0.003  0.003  0.150  0.150  0.000  0.150  0.000  0.477
tot  0.035  0.006  0.006  0.006  0.300  0.300  0.000  0.300  0.000  0.954
 
band   2 # energy    1.95422009 # occ.  1.00000000
 
ion      s     py     pz     px    dxy    dyz    dz2    dxz    dx2    tot
  1  0.000  0.008  0.016  0.004  0.244  0.062  0.024  0.118  0.004  0.480
  2  0.000  0.008  0.016  0.004  0.244  0.062  0.024  0.118  0.004  0.480
tot  0.000  0.016  0.033  0.008  0.489  0.124  0.048  0.235  0.008  0.960
 
band   3 # energy    1.95422009 # occ.  1.00000000
 
ion      s     py     pz     px    dxy    dyz    dz2    dxz    dx2    tot
  1  0.000  0.011  0.003  0.015  0.038  0.221  0.004  0.165  0.024  0.480
  2  0.000  0.011  0.003  0.015  0.038  0.221  0.004  0.165  0.024  0.480
tot  0.000  0.022  0.005  0.029  0.076  0.441  0.008  0.330  0.048  0.960
 
band   4 # energy    2.09851440 # occ.  1.00000000
 
ion      s     py     pz     px    dxy    dyz    dz2    dxz    dx2    tot
  1  0.055  0.031  0.031  0.031  0.095  0.095  0.000  0.095  0.000  0.431
  2  0.055  0.031  0.031  0.031  0.095  0.095  0.000  0.095  0.000  0.431
tot  0.110  0.061  0.061  0.061  0.189  0.189  0.000  0.189  0.000  0.862
 
band   5 # energy    2.23928758 # occ.  1.00000000
 
ion      s     py     pz     px    dxy    dyz    dz2    dxz    dx2    tot
  1  0.000  0.030  0.030  0.000  0.144  0.002  0.079  0.143  0.027  0.455
  2  0.000  0.030  0.030  0.000  0.144  0.002  0.079  0.143  0.027  0.455
tot  0.000  0.060  0.061  0.001  0.287  0.003  0.157  0.286  0.053  0.909
 
band   6 # energy    2.23928760 # occ.  1.00000000
 
ion      s     py     pz     px    dxy    dyz    dz2    dxz    dx2    tot
  1  0.000  0.010  0.010  0.040  0.049  0.191  0.027  0.049  0.079  0.455
  2  0.000  0.010  0.010  0.040  0.049  0.191  0.027  0.049  0.079  0.455
tot  0.000  0.021  0.021  0.081  0.097  0.381  0.053  0.098  0.157  0.909
 
band   7 # energy    4.26003902 # occ.  1.00000000
 
ion      s     py     pz     px    dxy    dyz    dz2    dxz    dx2    tot
  1  0.000  0.000  0.000  0.000  0.021  0.006  0.469  0.004  0.002  0.503
  2  0.000  0.000  0.000  0.000  0.021  0.006  0.469  0.004  0.002  0.503
tot  0.000  0.000  0.000  0.000  0.042  0.013  0.938  0.008  0.004  1.005
 
band   8 # energy    4.26003902 # occ.  1.00000000
 
ion      s     py     pz     px    dxy    dyz    dz2    dxz    dx2    tot
  1  0.000  0.000  0.000  0.000  0.000  0.014  0.002  0.017  0.469  0.503
  2  0.000  0.000  0.000  0.000  0.000  0.014  0.002  0.017  0.469  0.503
tot  0.000  0.000  0.000  0.000  0.000  0.029  0.004  0.034  0.938  1.005
 
band   9 # energy    4.29133941 # occ.  1.00000000
 
ion      s     py     pz     px    dxy    dyz    dz2    dxz    dx2    tot
  1  0.000  0.002  0.002  0.000  0.058  0.001  0.283  0.059  0.097  0.502
  2  0.000  0.002  0.002  0.000  0.058  0.001  0.283  0.059  0.097  0.502
tot  0.000  0.004  0.004  0.000  0.117  0.001  0.567  0.117  0.194  1.004
 
band  10 # energy    4.29133941 # occ.  1.00000000
 
ion      s     py     pz     px    dxy    dyz    dz2    dxz    dx2    tot
  1  0.000  0.001  0.001  0.003  0.020  0.078  0.097  0.020  0.283  0.502
  2  0.000  0.001  0.001  0.003  0.020  0.078  0.097  0.020  0.283  0.502
tot  0.000  0.001  0.001  0.005  0.040  0.156  0.194  0.040  0.567  1.004
 
band  11 # energy    8.42901831 # occ.  0.00000000
 
ion      s     py     pz     px    dxy    dyz    dz2    dxz    dx2    tot
  1  0.060  0.037  0.037  0.037  0.082  0.082  0.000  0.082  0.000  0.418
  2  0.060  0.037  0.037  0.037  0.082  0.082  0.000  0.082  0.000  0.418
tot  0.120  0.075  0.075  0.075  0.164  0.164  0.000  0.164  0.000  0.837
 
band  12 # energy   12.02446611 # occ.  0.00000000
 
ion      s     py     pz     px    dxy    dyz    dz2    dxz    dx2    tot
  1  0.000  0.108  0.108  0.001  0.073  0.001  0.020  0.072  0.007  0.389
  2  0.000  0.108  0.108  0.001  0.073  0.001  0.020  0.072  0.007  0.389
tot  0.000  0.216  0.216  0.002  0.145  0.002  0.039  0.145  0.013  0.778
 
# of k-points:    4         # of bands:  12         # of ions:   2

 k-point    1 :    0.12500000 0.12500000 0.12500000     weight = 0.12500000

band   1 # energy   -1.68883211 # occ.  1.00000000
 
ion      s     py     pz     px    dxy    dyz    dz2    dxz    dx2    tot
  1  0.316  0.010  0.010  0.010  0.001  0.001  0.000  0.001  0.000  0.349
  2  0.316  0.010  0.010  0.010  0.001  0.001  0.000  0.001  0.000  0.349
tot  0.633  0.020  0.020  0.020  0.002  0.002  0.000  0.002  0.000  0.699
 
band   2 # energy    2.96808835 # occ.  1.00000000
 
ion      s     py     pz     px    dxy    dyz    dz2    dxz    dx2    tot
  1  0.000  0.011  0.001  0.005  0.000  0.001  0.052  0.003  0.356  0.429
  2  0.000  0.011  0.001  0.005  0.000  0.001  0.052  0.003  0.356  0.429
tot  0.000  0.022  0.003  0.009  0.001  0.002  0.105  0.006  0.711  0.859
 
band   3 # energy    2.96808836 # occ.  1.00000000
 
ion      s     py     pz     px    dxy    dyz    dz2    dxz    dx2    tot
  1  0.000  0.000  0.010  0.007  0.002  0.002  0.356  0.000  0.052  0.429
  2  0.000  0.000  0.010  0.007  0.002  0.002  0.356  0.000  0.052  0.429
tot  0.000  0.001  0.020  0.014  0.005  0.003  0.711  0.000  0.105  0.859
 
band   4 # energy    4.94055918 # occ.  1.02426438
 
ion      s     py     pz     px    dxy    dyz    dz2    dxz    dx2    tot
  1  0.000  0.000  0.001  0.001  0.250  0.241  0.005  0.004  0.001  0.503
  2  0.000  0.000  0.001  0.001  0.250  0.241  0.005  0.004  0.001  0.503
tot  0.000  0.000  0.002  0.002  0.500  0.482  0.009  0.008  0.003  1.006
 
band   5 # energy    4.94055918 # occ.  1.02426438
 
ion      s     py     pz     px    dxy    dyz    dz2    dxz    dx2    tot
  1  0.000  0.001  0.000  0.000  0.080  0.089  0.001  0.326  0.005  0.503
  2  0.000  0.001  0.000  0.000  0.080  0.089  0.001  0.326  0.005  0.503
tot  0.000  0.003  0.001  0.001  0.160  0.178  0.003  0.652  0.009  1.006
 
band   6 # energy    5.75906172 # occ.  0.00000000
 
ion      s     py     pz     px    dxy    dyz    dz2    dxz    dx2    tot
  1  0.000  0.002  0.002  0.002  0.165  0.165  0.000  0.165  0.000  0.501
  2  0.000  0.002  0.002  0.002  0.165  0.165  0.000  0.165  0.000  0.501
tot  0.001  0.003  0.003  0.003  0.331  0.331  0.000  0.331  0.000  1.003
 
band   7 # energy    6.19826809 # occ.  0.00000000
 
ion      s     py     pz     px    dxy    dyz    dz2    dxz    dx2    tot
  1  0.008  0.006  0.006  0.006  0.152  0.152  0.000  0.152  0.000  0.481
  2  0.008  0.006  0.006  0.006  0.152  0.152  0.000  0.152  0.000  0.481
tot  0.016  0.012  0.012  0.012  0.303  0.303  0.000  0.303  0.000  0.961
 
band   8 # energy    6.87849563 # occ.  0.00000000
 
ion      s     py     pz     px    dxy    dyz    dz2    dxz    dx2    tot
  1  0.000  0.000  0.000  0.000  0.001  0.001  0.131  0.004  0.351  0.489
  2  0.000  0.000  0.000  0.000  0.001  0.001  0.131  0.004  0.351  0.489
tot  0.000  0.000  0.000  0.000  0.002  0.002  0.263  0.009  0.702  0.978
 
band   9 # energy    6.87849563 # occ.  0.00000000
 
ion      s     py     pz     px    dxy    dyz    dz2    dxz    dx2    tot
  1  0.000  0.000  0.000  0.000  0.003  0.003  0.351  0.000  0.131  0.489
  2  0.000  0.000  0.000  0.000  0.003  0.003  0.351  0.000  0.131  0.489
tot  0.000  0.000  0.000  0.000  0.007  0.007  0.702  0.000  0.263  0.978
 
band  10 # energy    7.38895615 # occ.  0.00000000
 
ion      s     py     pz     px    dxy    dyz    dz2    dxz    dx2    tot
  1  0.000  0.006  0.001  0.002  0.041  0.126  0.001  0.309  0.008  0.495
  2  0.000  0.006  0.001  0.002  0.041  0.126  0.001  0.309  0.008  0.495
tot  0.000  0.012  0.002  0.005  0.082  0.253  0.002  0.619  0.016  0.990
 
band  11 # energy    7.38895619 # occ.  0.00000000
 
ion      s     py     pz     px    dxy    dyz    dz2    dxz    dx2    tot
  1  0.000  0.000  0.005  0.004  0.277  0.191  0.008  0.008  0.001  0.495
  2  0.000  0.000  0.005  0.004  0.277  0.191  0.008  0.008  0.001  0.495
tot  0.000  0.000  0.010  0.007  0.554  0.383  0.016  0.017  0.002  0.990
 
band  12 # energy   14.49115028 # occ.  0.00000000
 
ion      s     py     pz     px    dxy    dyz    dz2    dxz    dx2    tot
  1  0.000  0.190  0.025  0.077  0.002  0.007  0.010  0.017  0.070  0.399
  2  0.000  0.190  0.025  0.077  0.002  0.007  0.010  0.017  0.070  0.399
tot  0.000  0.380  0.050  0.155  0.004  0.014  0.021  0.034  0.140  0.798
 

 k-point    2 :    0.37500000 0.12500000 0.12500000     weight = 0.37500000

band   1 # energy    0.44403817 # occ.  1.00000000
 
ion      s     py     pz     px    dxy    dyz    dz2    dxz    dx2    tot
  1  0.228  0.007  0.007  0.073  0.011  0.000  0.005  0.011  0.014  0.356
  2  0.228  0.007  0.007  0.073  0.011  0.000  0.005  0.011  0.014  0.356
tot  0.457  0.014  0.014  0.147  0.021  0.000  0.009  0.021  0.028  0.713
 
band   2 # energy    2.83160617 # occ.  1.00000000
 
ion      s     py     pz     px    dxy    dyz    dz2    dxz    dx2    tot
  1  0.060  0.002  0.002  0.088  0.023  0.000  0.050  0.023  0.150  0.399
  2  0.060  0.002  0.002  0.088  0.023  0.000  0.050  0.023  0.150  0.399
tot  0.120  0.005  0.005  0.176  0.046  0.000  0.100  0.046  0.300  0.799
 
band   3 # energy    3.80635356 # occ.  1.00000000
 
ion      s     py     pz     px    dxy    dyz    dz2    dxz    dx2    tot
  1  0.000  0.009  0.009  0.000  0.032  0.000  0.268  0.032  0.089  0.440
  2  0.000  0.009  0.009  0.000  0.032  0.000  0.268  0.032  0.089  0.440
tot  0.000  0.019  0.019  0.000  0.064  0.000  0.536  0.064  0.179  0.880
 
band   4 # energy    4.65721299 # occ.  1.00000044
 
ion      s     py     pz     px    dxy    dyz    dz2    dxz    dx2    tot
  1  0.000  0.008  0.008  0.000  0.174  0.000  0.086  0.174  0.029  0.479
  2  0.000  0.008  0.008  0.000  0.174  0.000  0.086  0.174  0.029  0.479
tot  0.000  0.016  0.016  0.000  0.348  0.000  0.172  0.348  0.057  0.958
 
band   5 # energy    4.74438428 # occ.  1.00012075
 
ion      s     py     pz     px    dxy    dyz    dz2    dxz    dx2    tot
  1  0.001  0.003  0.003  0.008  0.126  0.227  0.000  0.126  0.000  0.493
  2  0.001  0.003  0.003  0.008  0.126  0.227  0.000  0.126  0.000  0.493
tot  0.002  0.005  0.005  0.017  0.252  0.454  0.000  0.252  0.000  0.987
 
band   6 # energy    5.13277964 # occ. -0.01630326
 
ion      s     py     pz     px    dxy    dyz    dz2    dxz    dx2    tot
  1  0.003  0.008  0.008  0.003  0.128  0.166  0.009  0.128  0.026  0.480
  2  0.003  0.008  0.008  0.003  0.128  0.166  0.009  0.128  0.026  0.480
tot  0.006  0.016  0.016  0.007  0.257  0.332  0.018  0.257  0.053  0.960
 
band   7 # energy    6.16006023 # occ.  0.00000000
 
ion      s     py     pz     px    dxy    dyz    dz2    dxz    dx2    tot
  1  0.000  0.008  0.008  0.000  0.194  0.000  0.060  0.194  0.020  0.484
  2  0.000  0.008  0.008  0.000  0.194  0.000  0.060  0.194  0.020  0.484
tot  0.000  0.016  0.016  0.000  0.388  0.000  0.120  0.388  0.040  0.968
 
band   8 # energy    6.17564891 # occ.  0.00000000
 
ion      s     py     pz     px    dxy    dyz    dz2    dxz    dx2    tot
  1  0.000  0.001  0.001  0.000  0.064  0.000  0.264  0.064  0.088  0.482
  2  0.000  0.001  0.001  0.000  0.064  0.000  0.264  0.064  0.088  0.482
tot  0.000  0.001  0.001  0.000  0.129  0.000  0.528  0.129  0.176  0.965
 
band   9 # energy    6.74981846 # occ.  0.00000000
 
ion      s     py     pz     px    dxy    dyz    dz2    dxz    dx2    tot
  1  0.001  0.005  0.005  0.004  0.106  0.269  0.001  0.106  0.003  0.499
  2  0.001  0.005  0.005  0.004  0.106  0.269  0.001  0.106  0.003  0.499
tot  0.002  0.009  0.009  0.008  0.212  0.537  0.002  0.212  0.006  0.997
 
band  10 # energy    7.26751686 # occ.  0.00000000
 
ion      s     py     pz     px    dxy    dyz    dz2    dxz    dx2    tot
  1  0.005  0.000  0.000  0.003  0.060  0.310  0.015  0.060  0.044  0.496
  2  0.005  0.000  0.000  0.003  0.060  0.310  0.015  0.060  0.044  0.496
tot  0.011  0.000  0.000  0.006  0.119  0.620  0.029  0.119  0.088  0.993
 
band  11 # energy    7.41355506 # occ.  0.00000000
 
ion      s     py     pz     px    dxy    dyz    dz2    dxz    dx2    tot
  1  0.010  0.001  0.001  0.004  0.000  0.003  0.120  0.000  0.361  0.499
  2  0.010  0.001  0.001  0.004  0.000  0.003  0.120  0.000  0.361  0.499
tot  0.021  0.001  0.001  0.007  0.000  0.006  0.241  0.000  0.722  0.999
 
band  12 # energy    9.45239640 # occ.  0.00000000
 
ion      s     py     pz     px    dxy    dyz    dz2    dxz    dx2    tot
  1  0.064  0.008  0.008  0.090  0.022  0.018  0.053  0.022  0.160  0.447
  2  0.064  0.008  0.008  0.090  0.022  0.018  0.053  0.022  0.160  0.447
tot  0.128  0.017  0.017  0.180  0.044  0.037  0.107  0.044  0.320  0.894
 

 k-point    3 :    0.37500000 0.37500000 0.12500000     weight = 0.37500000

band   1 # energy    1.73168649 # occ.  1.00000000
 
ion      s     py     pz     px    dxy    dyz    dz2    dxz    dx2    tot
  1  0.139  0.027  0.009  0.027  0.142  0.002  0.047  0.002  0.000  0.396
  2  0.139  0.027  0.009  0.027  0.142  0.002  0.047  0.002  0.000  0.396
tot  0.278  0.054  0.019  0.054  0.285  0.004  0.094  0.004  0.000  0.791
 
band   2 # energy    2.60456013 # occ.  1.00000000
 
ion      s     py     pz     px    dxy    dyz    dz2    dxz    dx2    tot
  1  0.058  0.006  0.008  0.006  0.221  0.002  0.131  0.002  0.000  0.434
  2  0.058  0.006  0.008  0.006  0.221  0.002  0.131  0.002  0.000  0.434
tot  0.116  0.011  0.017  0.011  0.442  0.004  0.263  0.004  0.000  0.868
 
band   3 # energy    4.04322733 # occ.  1.00000000
 
ion      s     py     pz     px    dxy    dyz    dz2    dxz    dx2    tot
  1  0.000  0.002  0.000  0.002  0.000  0.242  0.000  0.242  0.003  0.492
  2  0.000  0.002  0.000  0.002  0.000  0.242  0.000  0.242  0.003  0.492
tot  0.000  0.005  0.000  0.005  0.000  0.484  0.000  0.484  0.007  0.984
 
band   4 # energy    4.22974056 # occ.  1.00000000
 
ion      s     py     pz     px    dxy    dyz    dz2    dxz    dx2    tot
  1  0.001  0.002  0.007  0.002  0.002  0.228  0.018  0.228  0.000  0.488
  2  0.001  0.002  0.007  0.002  0.002  0.228  0.018  0.228  0.000  0.488
tot  0.003  0.004  0.014  0.004  0.003  0.456  0.036  0.456  0.000  0.977
 
band   5 # energy    4.64448925 # occ.  1.00000017
 
ion      s     py     pz     px    dxy    dyz    dz2    dxz    dx2    tot
  1  0.000  0.074  0.000  0.074  0.000  0.028  0.000  0.028  0.201  0.405
  2  0.000  0.074  0.000  0.074  0.000  0.028  0.000  0.028  0.201  0.405
tot  0.000  0.148  0.000  0.148  0.000  0.057  0.000  0.057  0.401  0.810
 
band   6 # energy    4.69366465 # occ.  1.00000564
 
ion      s     py     pz     px    dxy    dyz    dz2    dxz    dx2    tot
  1  0.016  0.061  0.001  0.061  0.136  0.044  0.056  0.044  0.000  0.419
  2  0.016  0.061  0.001  0.061  0.136  0.044  0.056  0.044  0.000  0.419
tot  0.032  0.122  0.002  0.122  0.273  0.088  0.111  0.088  0.000  0.838
 
band   7 # energy    6.64579720 # occ.  0.00000000
 
ion      s     py     pz     px    dxy    dyz    dz2    dxz    dx2    tot
  1  0.006  0.000  0.001  0.000  0.166  0.010  0.300  0.010  0.000  0.494
  2  0.006  0.000  0.001  0.000  0.166  0.010  0.300  0.010  0.000  0.494
tot  0.012  0.001  0.001  0.001  0.332  0.020  0.600  0.020  0.000  0.987
 
band   8 # energy    6.84148051 # occ.  0.00000000
 
ion      s     py     pz     px    dxy    dyz    dz2    dxz    dx2    tot
  1  0.002  0.000  0.000  0.000  0.112  0.006  0.370  0.006  0.000  0.497
  2  0.002  0.000  0.000  0.000  0.112  0.006  0.370  0.006  0.000  0.497
tot  0.004  0.000  0.001  0.000  0.224  0.012  0.740  0.012  0.000  0.994
 
band   9 # energy    7.19651625 # occ.  0.00000000
 
ion      s     py     pz     px    dxy    dyz    dz2    dxz    dx2    tot
  1  0.000  0.000  0.000  0.000  0.000  0.002  0.000  0.002  0.497  0.502
  2  0.000  0.000  0.000  0.000  0.000  0.002  0.000  0.002  0.497  0.502
tot  0.000  0.000  0.000  0.000  0.000  0.004  0.000  0.004  0.995  1.004
 
band  10 # energy    7.48837562 # occ.  0.00000000
 
ion      s     py     pz     px    dxy    dyz    dz2    dxz    dx2    tot
  1  0.000  0.006  0.000  0.006  0.000  0.154  0.000  0.154  0.178  0.498
  2  0.000  0.006  0.000  0.006  0.000  0.154  0.000  0.154  0.178  0.498
tot  0.000  0.013  0.000  0.013  0.000  0.307  0.000  0.307  0.356  0.995
 
band  11 # energy    7.95760481 # occ.  0.00000000
 
ion      s     py     pz     px    dxy    dyz    dz2    dxz    dx2    tot
  1  0.007  0.014  0.005  0.014  0.049  0.196  0.000  0.196  0.000  0.482
  2  0.007  0.014  0.005  0.014  0.049  0.196  0.000  0.196  0.000  0.482
tot  0.015  0.028  0.010  0.028  0.098  0.392  0.000  0.392  0.000  0.964
 
band  12 # energy    9.78420766 # occ.  0.00000000
 
ion      s     py     pz     px    dxy    dyz    dz2    dxz    dx2    tot