PROCAR lm decomposed
# of k-points:    4         # of bands:  12         # of ions:   2

 k-point    1 :    0.12500000 0.12500000 0.12500000     weight = 0.12500000

band   1 # energy   -1.99961495 # occ.  1.00000000
 
ion      s     py     pz     px    dxy    dyz    dz2    dxz    dx2    tot
  1  0.317  0.010  0.010  0.010  0.001  0.001  0.000  0.001  0.000  0.351
  2  0.317  0.010  0.010  0.010  0.001  0.001  0.000  0.001  0.000  0.351
tot  0.634  0.020  0.020  0.020  0.003  0.003  0.000  0.003  0.000  0.703
 
band   2 # energy    0.87118166 # occ.  1.00000000
 
ion      s     py     pz     px    dxy    dyz    dz2    dxz    dx2    tot
  1  0.000  0.003  0.006  0.001  0.002  0.000  0.408  0.001  0.027  0.448
  2  0.000  0.003  0.006  0.001  0.002  0.000  0.408  0.001  0.027  0.448
tot  0.000  0.006  0.012  0.001  0.004  0.000  0.816  0.002  0.054  0.896
 
band   3 # energy    0.87118168 # occ.  1.00000000
 
ion      s     py     pz     px    dxy    dyz    dz2    dxz    dx2    tot
  1  0.000  0.003  0.000  0.006  0.000  0.002  0.027  0.001  0.408  0.448
  2  0.000  0.003  0.000  0.006  0.000  0.002  0.027  0.001  0.408  0.448
tot  0.000  0.007  0.001  0.011  0.000  0.004  0.054  0.002  0.816  0.896
 
band   4 # energy    2.45095250 # occ.  1.00000000
 
ion      s     py     pz     px    dxy    dyz    dz2    dxz    dx2    tot
  1  0.000  0.001  0.000  0.001  0.028  0.297  0.000  0.171  0.005  0.502
  2  0.000  0.001  0.000  0.001  0.028  0.297  0.000  0.171  0.005  0.502
tot  0.000  0.001  0.000  0.002  0.055  0.594  0.001  0.341  0.010  1.005
 
band   5 # energy    2.45095250 # occ.  1.00000000
 
ion      s     py     pz     px    dxy    dyz    dz2    dxz    dx2    tot
  1  0.000  0.000  0.001  0.000  0.303  0.033  0.005  0.160  0.000  0.502
  2  0.000  0.000  0.001  0.000  0.303  0.033  0.005  0.160  0.000  0.502
tot  0.000  0.001  0.002  0.000  0.605  0.066  0.010  0.319  0.001  1.005
 
band   6 # energy    3.15110539 # occ.  1.00000000
 
ion      s     py     pz     px    dxy    dyz    dz2    dxz    dx2    tot
  1  0.001  0.001  0.001  0.001  0.165  0.165  0.000  0.165  0.000  0.499
  2  0.001  0.001  0.001  0.001  0.165  0.165  0.000  0.165  0.000  0.499
tot  0.002  0.003  0.003  0.003  0.329  0.329  0.000  0.329  0.000  0.999
 
band   7 # energy    3.64186651 # occ.  1.00000000
 
ion      s     py     pz     px    dxy    dyz    dz2    dxz    dx2    tot
  1  0.005  0.003  0.003  0.003  0.157  0.157  0.000  0.157  0.000  0.486
  2  0.005  0.003  0.003  0.003  0.157  0.157  0.000  0.157  0.000  0.486
tot  0.009  0.007  0.007  0.007  0.314  0.314  0.000  0.314  0.000  0.972
 
band   8 # energy    3.82495307 # occ.  1.00000000
 
ion      s     py     pz     px    dxy    dyz    dz2    dxz    dx2    tot
  1  0.000  0.000  0.000  0.000  0.000  0.004  0.041  0.002  0.445  0.491
  2  0.000  0.000  0.000  0.000  0.000  0.004  0.041  0.002  0.445  0.491
tot  0.000  0.000  0.000  0.000  0.001  0.007  0.081  0.004  0.889  0.982
 
band   9 # energy    3.82495310 # occ.  1.00000000
 
ion      s     py     pz     px    dxy    dyz    dz2    dxz    dx2    tot
  1  0.000  0.000  0.000  0.000  0.004  0.000  0.445  0.002  0.041  0.491
  2  0.000  0.000  0.000  0.000  0.004  0.000  0.445  0.002  0.041  0.491
tot  0.000  0.000  0.000  0.000  0.007  0.001  0.889  0.004  0.081  0.982
 
band  10 # energy    4.58105080 # occ.  1.00000000
 
ion      s     py     pz     px    dxy    dyz    dz2    dxz    dx2    tot
  1  0.000  0.002  0.000  0.003  0.020  0.293  0.000  0.172  0.005  0.496
  2  0.000  0.002  0.000  0.003  0.020  0.293  0.000  0.172  0.005  0.496
tot  0.000  0.004  0.000  0.006  0.040  0.585  0.001  0.344  0.011  0.992
 
band  11 # energy    4.58105090 # occ.  1.00000000
 
ion      s     py     pz     px    dxy    dyz    dz2    dxz    dx2    tot
  1  0.000  0.002  0.003  0.000  0.303  0.031  0.005  0.151  0.000  0.496
  2  0.000  0.002  0.003  0.000  0.303  0.031  0.005  0.151  0.000  0.496
tot  0.000  0.003  0.006  0.001  0.607  0.061  0.011  0.302  0.001  0.992
 
band  12 # energy   13.58776041 # occ.  0.00000000
 
ion      s     py     pz     px    dxy    dyz    dz2    dxz    dx2    tot
  1  0.000  0.108  0.013  0.183  0.001  0.011  0.005  0.006  0.068  0.394
  2  0.000  0.108  0.013  0.183  0.001  0.011  0.005  0.006  0.068  0.394
tot  0.000  0.215  0.025  0.366  0.001  0.021  0.009  0.013  0.137  0.788
 

 k-point    2 :    0.37500000 0.12500000 0.12500000     weight = 0.37500000

band   1 # energy   -0.05545233 # occ.  1.00000000
 
ion      s     py     pz     px    dxy    dyz    dz2    dxz    dx2    tot
  1  0.212  0.006  0.006  0.064  0.023  0.000  0.009  0.023  0.027  0.370
  2  0.212  0.006  0.006  0.064  0.023  0.000  0.009  0.023  0.027  0.370
tot  0.425  0.011  0.011  0.127  0.047  0.000  0.018  0.047  0.054  0.740
 
band   2 # energy    1.29227537 # occ.  1.00000000
 
ion      s     py     pz     px    dxy    dyz    dz2    dxz    dx2    tot
  1  0.037  0.001  0.001  0.053  0.031  0.001  0.070  0.031  0.209  0.433
  2  0.037  0.001  0.001  0.053  0.031  0.001  0.070  0.031  0.209  0.433
tot  0.074  0.002  0.002  0.105  0.061  0.002  0.140  0.061  0.419  0.866
 
band   3 # energy    1.55245744 # occ.  1.00000000
 
ion      s     py     pz     px    dxy    dyz    dz2    dxz    dx2    tot
  1  0.000  0.005  0.005  0.000  0.024  0.000  0.298  0.024  0.099  0.456
  2  0.000  0.005  0.005  0.000  0.024  0.000  0.298  0.024  0.099  0.456
tot  0.000  0.011  0.011  0.000  0.048  0.000  0.596  0.048  0.199  0.911
 
band   4 # energy    2.28941182 # occ.  1.00000000
 
ion      s     py     pz     px    dxy    dyz    dz2    dxz    dx2    tot
  1  0.000  0.006  0.006  0.000  0.164  0.000  0.108  0.164  0.036  0.484
  2  0.000  0.006  0.006  0.000  0.164  0.000  0.108  0.164  0.036  0.484
tot  0.000  0.012  0.012  0.000  0.329  0.000  0.216  0.329  0.072  0.969
 
band   5 # energy    2.37942298 # occ.  1.00000000
 
ion      s     py     pz     px    dxy    dyz    dz2    dxz    dx2    tot
  1  0.005  0.002  0.002  0.010  0.107  0.257  0.000  0.107  0.001  0.492
  2  0.005  0.002  0.002  0.010  0.107  0.257  0.000  0.107  0.001  0.492
tot  0.011  0.005  0.005  0.020  0.213  0.513  0.001  0.213  0.002  0.983
 
band   6 # energy    2.71883565 # occ.  1.00000000
 
ion      s     py     pz     px    dxy    dyz    dz2    dxz    dx2    tot
  1  0.002  0.005  0.005  0.002  0.125  0.170  0.013  0.125  0.039  0.486
  2  0.002  0.005  0.005  0.002  0.125  0.170  0.013  0.125  0.039  0.486
tot  0.004  0.011  0.011  0.003  0.250  0.340  0.026  0.250  0.077  0.971
 
band   7 # energy    3.32677622 # occ.  1.00000000
 
ion      s     py     pz     px    dxy    dyz    dz2    dxz    dx2    tot
  1  0.000  0.001  0.001  0.000  0.077  0.000  0.249  0.077  0.083  0.488
  2  0.000  0.001  0.001  0.000  0.077  0.000  0.249  0.077  0.083  0.488
tot  0.000  0.002  0.002  0.000  0.154  0.000  0.499  0.154  0.166  0.975
 
band   8 # energy    3.50691312 # occ.  1.00000000
 
ion      s     py     pz     px    dxy    dyz    dz2    dxz    dx2    tot
  1  0.000  0.007  0.007  0.000  0.209  0.000  0.043  0.209  0.014  0.488
  2  0.000  0.007  0.007  0.000  0.209  0.000  0.043  0.209  0.014  0.488
tot  0.000  0.013  0.013  0.000  0.417  0.000  0.086  0.417  0.029  0.975
 
band   9 # energy    4.05618582 # occ.  1.00000000
 
ion      s     py     pz     px    dxy    dyz    dz2    dxz    dx2    tot
  1  0.000  0.003  0.003  0.002  0.103  0.211  0.019  0.103  0.056  0.500
  2  0.000  0.003  0.003  0.002  0.103  0.211  0.019  0.103  0.056  0.500
tot  0.001  0.006  0.006  0.005  0.205  0.423  0.037  0.205  0.112  1.000
 
band  10 # energy    4.41659968 # occ.  1.00000000
 
ion      s     py     pz     px    dxy    dyz    dz2    dxz    dx2    tot
  1  0.025  0.003  0.003  0.012  0.012  0.030  0.098  0.012  0.293  0.488
  2  0.025  0.003  0.003  0.012  0.012  0.030  0.098  0.012  0.293  0.488
tot  0.051  0.006  0.006  0.023  0.024  0.061  0.196  0.024  0.587  0.977
 
band  11 # energy    4.43928723 # occ.  1.00000000
 
ion      s     py     pz     px    dxy    dyz    dz2    dxz    dx2    tot
  1  0.004  0.000  0.000  0.003  0.067  0.316  0.010  0.067  0.029  0.496
  2  0.004  0.000  0.000  0.003  0.067  0.316  0.010  0.067  0.029  0.496
tot  0.008  0.000  0.000  0.006  0.134  0.632  0.020  0.134  0.059  0.993
 
band  12 # energy    7.68412709 # occ.  0.33333333
 
ion      s     py     pz     px    dxy    dyz    dz2    dxz    dx2    tot
  1  0.090  0.010  0.010  0.127  0.016  0.008  0.035  0.016  0.106  0.418
  2  0.090  0.010  0.010  0.127  0.016  0.008  0.035  0.016  0.106  0.418
tot  0.180  0.019  0.019  0.253  0.033  0.016  0.070  0.033  0.211  0.836
 

 k-point    3 :    0.37500000 0.37500000 0.12500000     weight = 0.37500000

band   1 # energy    0.48526554 # occ.  1.00000000
 
ion      s     py     pz     px    dxy    dyz    dz2    dxz    dx2    tot
  1  0.093  0.010  0.008  0.010  0.223  0.000  0.086  0.000  0.000  0.430
  2  0.093  0.010  0.008  0.010  0.223  0.000  0.086  0.000  0.000  0.430
tot  0.185  0.020  0.015  0.020  0.447  0.001  0.172  0.001  0.000  0.861
 
band   2 # energy    0.80667340 # occ.  1.00000000
 
ion      s     py     pz     px    dxy    dyz    dz2    dxz    dx2    tot
  1  0.040  0.004  0.006  0.004  0.229  0.004  0.161  0.004  0.000  0.450
  2  0.040  0.004  0.006  0.004  0.229  0.004  0.161  0.004  0.000  0.450
tot  0.080  0.008  0.011  0.008  0.458  0.007  0.322  0.007  0.000  0.900
 
band   3 # energy    1.73194144 # occ.  1.00000000
 
ion      s     py     pz     px    dxy    dyz    dz2    dxz    dx2    tot
  1  0.000  0.002  0.000  0.002  0.000  0.243  0.000  0.243  0.004  0.494
  2  0.000  0.002  0.000  0.002  0.000  0.243  0.000  0.243  0.004  0.494
tot  0.000  0.003  0.000  0.003  0.000  0.487  0.000  0.487  0.008  0.988
 
band   4 # energy    1.93576121 # occ.  1.00000000
 
ion      s     py     pz     px    dxy    dyz    dz2    dxz    dx2    tot
  1  0.001  0.002  0.005  0.002  0.002  0.228  0.025  0.228  0.000  0.492
  2  0.001  0.002  0.005  0.002  0.002  0.228  0.025  0.228  0.000  0.492
tot  0.002  0.003  0.010  0.003  0.003  0.456  0.051  0.456  0.000  0.983
 
band   5 # energy    2.79038446 # occ.  1.00000000
 
ion      s     py     pz     px    dxy    dyz    dz2    dxz    dx2    tot
  1  0.000  0.032  0.000  0.032  0.000  0.025  0.000  0.025  0.341  0.454
  2  0.000  0.032  0.000  0.032  0.000  0.025  0.000  0.025  0.341  0.454
tot  0.000  0.064  0.000  0.064  0.000  0.049  0.000  0.049  0.681  0.907
 
band   6 # energy    3.15277456 # occ.  1.00000000
 
ion      s     py     pz     px    dxy    dyz    dz2    dxz    dx2    tot
  1  0.038  0.052  0.000  0.052  0.048  0.104  0.032  0.104  0.000  0.431
  2  0.038  0.052  0.000  0.052  0.048  0.104  0.032  0.104  0.000  0.431
tot  0.076  0.103  0.000  0.103  0.097  0.208  0.064  0.208  0.000  0.862
 
band   7 # energy    3.77172842 # occ.  1.00000000
 
ion      s     py     pz     px    dxy    dyz    dz2    dxz    dx2    tot
  1  0.005  0.001  0.001  0.001  0.187  0.012  0.278  0.012  0.000  0.496
  2  0.005  0.001  0.001  0.001  0.187  0.012  0.278  0.012  0.000  0.496
tot  0.011  0.001  0.002  0.001  0.373  0.023  0.556  0.023  0.000  0.992
 
band   8 # energy    3.84764472 # occ.  1.00000000
 
ion      s     py     pz     px    dxy    dyz    dz2    dxz    dx2    tot
  1  0.003  0.000  0.000  0.000  0.122  0.005  0.362  0.005  0.000  0.498
  2  0.003  0.000  0.000  0.000  0.122  0.005  0.362  0.005  0.000  0.498
tot  0.006  0.000  0.001  0.000  0.245  0.010  0.725  0.010  0.000  0.995
 
band   9 # energy    4.06495356 # occ.  1.00000000
 
ion      s     py     pz     px    dxy    dyz    dz2    dxz    dx2    tot
  1  0.000  0.000  0.000  0.000  0.000  0.002  0.000  0.002  0.497  0.501
  2  0.000  0.000  0.000  0.000  0.000  0.002  0.000  0.002  0.497  0.501
tot  0.000  0.000  0.000  0.000  0.000  0.005  0.000  0.005  0.993  1.003
 
band  10 # energy    4.60473452 # occ.  1.00000000
 
ion      s     py     pz     px    dxy    dyz    dz2    dxz    dx2    tot
  1  0.000  0.007  0.000  0.007  0.000  0.193  0.000  0.193  0.095  0.496
  2  0.000  0.007  0.000  0.007  0.000  0.193  0.000  0.193  0.095  0.496
tot  0.000  0.014  0.000  0.014  0.000  0.386  0.000  0.386  0.190  0.991
 
band  11 # energy    5.52839303 # occ.  1.00000000
 
ion      s     py     pz     px    dxy    dyz    dz2    dxz    dx2    tot
  1  0.033  0.035  0.005  0.035  0.064  0.139  0.002  0.139  0.000  0.452
  2  0.033  0.035  0.005  0.035  0.064  0.139  0.002  0.139  0.000  0.452
tot  0.066  0.071  0.010  0.071  0.129  0.278  0.003  0.278  0.000  0.904
 
band  12 # energy    8.28858130 # occ.  0.00000000
 
ion      s     py     pz     px    dxy    dyz    dz2    dxz    dx2    tot
  1  0.000  0.125  0.000  0.125  0.000  0.035  0.000  0.035  0.074  0.394
  2  0.000  0.125  0.000  0.125  0.000  0.035  0.000  0.035  0.074  0.394
tot  0.000  0.250  0.000  0.250  0.000  0.070  0.000  0.070  0.149  0.788
 

 k-point    4 :    0.37500000 0.37500000 0.37500000     weight = 0.12500000

band   1 # energy    1.30530803 # occ.  1.00000000
 
ion      s     py     pz     px    dxy    dyz    dz2    dxz    dx2    tot
  1  0.017  0.003  0.003  0.003  0.150  0.150  0.000  0.150  0.000  0.478
  2  0.017  0.003  0.003  0.003  0.150  0.150  0.000  0.150  0.000  0.478
tot  0.034  0.006  0.006  0.006  0.301  0.301  0.000  0.301  0.000  0.955
 
band   2 # energy    1.69235829 # occ.  1.00000000
 
ion      s     py     pz     px    dxy    dyz    dz2    dxz    dx2    tot
  1  0.000  0.005  0.005  0.018  0.074  0.278  0.007  0.075  0.019  0.481
  2  0.000  0.005  0.005  0.018  0.074  0.278  0.007  0.075  0.019  0.481
tot  0.000  0.010  0.010  0.036  0.148  0.557  0.013  0.151  0.037  0.962
 
band   3 # energy    1.69235829 # occ.  1.00000000
 
ion      s     py     pz     px    dxy    dyz    dz2    dxz    dx2    tot
  1  0.000  0.014  0.014  0.000  0.211  0.007  0.019  0.210  0.007  0.481
  2  0.000  0.014  0.014  0.000  0.211  0.007  0.019  0.210  0.007  0.481
tot  0.000  0.027  0.027  0.001  0.422  0.014  0.037  0.420  0.013  0.962
 
band   4 # energy    1.88017704 # occ.  1.00000000
 
ion      s     py     pz     px    dxy    dyz    dz2    dxz    dx2    tot
  1  0.053  0.030  0.030  0.030  0.097  0.097  0.000  0.097  0.000  0.433
  2  0.053  0.030  0.030  0.030  0.097  0.097  0.000  0.097  0.000  0.433
tot  0.107  0.059  0.059  0.059  0.194  0.194  0.000  0.194  0.000  0.867
 
band   5 # energy    2.00955002 # occ.  1.00000000
 
ion      s     py     pz     px    dxy    dyz    dz2    dxz    dx2    tot
  1  0.000  0.010  0.010  0.040  0.050  0.198  0.025  0.051  0.072  0.456
  2  0.000  0.010  0.010  0.040  0.050  0.198  0.025  0.051  0.072  0.456
tot  0.000  0.020  0.020  0.079  0.101  0.396  0.049  0.102  0.145  0.911
 
band   6 # energy    2.00955006 # occ.  1.00000000
 
ion      s     py     pz     px    dxy    dyz    dz2    dxz    dx2    tot
  1  0.000  0.030  0.030  0.000  0.149  0.002  0.072  0.149  0.025  0.456
  2  0.000  0.030  0.030  0.000  0.149  0.002  0.072  0.149  0.025  0.456
tot  0.000  0.059  0.059  0.001  0.298  0.003  0.145  0.297  0.049  0.911
 
band   7 # energy    4.07199795 # occ.  1.00000000
 
ion      s     py     pz     px    dxy    dyz    dz2    dxz    dx2    tot
  1  0.000  0.000  0.000  0.000  0.019  0.005  0.471  0.004  0.003  0.503
  2  0.000  0.000  0.000  0.000  0.019  0.005  0.471  0.004  0.003  0.503
tot  0.000  0.000  0.000  0.000  0.038  0.011  0.942  0.008  0.006  1.005
 
band   8 # energy    4.07199795 # occ.  1.00000000
 
ion      s     py     pz     px    dxy    dyz    dz2    dxz    dx2    tot
  1  0.000  0.000  0.000  0.000  0.000  0.014  0.003  0.015  0.471  0.503
  2  0.000  0.000  0.000  0.000  0.000  0.014  0.003  0.015  0.471  0.503
tot  0.000  0.000  0.000  0.000  0.000  0.027  0.006  0.030  0.942  1.005
 
band   9 # energy    4.08056312 # occ.  1.00000000
 
ion      s     py     pz     px    dxy    dyz    dz2    dxz    dx2    tot
  1  0.000  0.001  0.001  0.000  0.055  0.001  0.290  0.055  0.098  0.502
  2  0.000  0.001  0.001  0.000  0.055  0.001  0.290  0.055  0.098  0.502
tot  0.000  0.003  0.003  0.000  0.110  0.001  0.580  0.110  0.197  1.004
 
band  10 # energy    4.08056313 # occ.  1.00000000
 
ion      s     py     pz     px    dxy    dyz    dz2    dxz    dx2    tot
  1  0.000  0.001  0.001  0.002  0.019  0.073  0.098  0.019  0.290  0.502
  2  0.000  0.001  0.001  0.002  0.019  0.073  0.098  0.019  0.290  0.502
tot  0.000  0.001  0.001  0.004  0.037  0.146  0.197  0.037  0.580  1.004
 
band  11 # energy    8.21042796 # occ.  0.00000000
 
ion      s     py     pz     px    dxy    dyz    dz2    dxz    dx2    tot
  1  0.062  0.038  0.038  0.038  0.080  0.080  0.000  0.080  0.000  0.416
  2  0.062  0.038  0.038  0.038  0.080  0.080  0.000  0.080  0.000  0.416
tot  0.125  0.077  0.077  0.077  0.159  0.159  0.000  0.159  0.000  0.832
 
band  12 # energy   11.85325875 # occ.  0.00000000
 
ion      s     py     pz     px    dxy    dyz    dz2    dxz    dx2    tot
  1  0.000  0.109  0.109  0.001  0.071  0.001  0.020  0.071  0.007  0.389
  2  0.000  0.109  0.109  0.001  0.071  0.001  0.020  0.071  0.007  0.389
tot  0.000  0.218  0.219  0.002  0.142  0.002  0.039  0.142  0.013  0.777
 
# of k-points:    4         # of bands:  12         # of ions:   2

 k-point    1 :    0.12500000 0.12500000 0.12500000     weight = 0.12500000

band   1 # energy   -1.55864651 # occ.  1.00000000
 
ion      s     py     pz     px    dxy    dyz    dz2    dxz    dx2    tot
  1  0.316  0.010  0.010  0.010  0.001  0.001  0.000  0.001  0.000  0.349
  2  0.316  0.010  0.010  0.010  0.001  0.001  0.000  0.001  0.000  0.349
tot  0.632  0.020  0.020  0.020  0.002  0.002  0.000  0.002  0.000  0.698
 
band   2 # energy    3.03353014 # occ.  1.00000000
 
ion      s     py     pz     px    dxy    dyz    dz2    dxz    dx2    tot
  1  0.000  0.011  0.001  0.004  0.000  0.001  0.053  0.003  0.356  0.430
  2  0.000  0.011  0.001  0.004  0.000  0.001  0.053  0.003  0.356  0.430
tot  0.000  0.022  0.003  0.009  0.001  0.002  0.105  0.005  0.713  0.859
 
band   3 # energy    3.03353015 # occ.  1.00000000
 
ion      s     py     pz     px    dxy    dyz    dz2    dxz    dx2    tot
  1  0.000  0.000  0.010  0.007  0.002  0.002  0.356  0.000  0.053  0.430
  2  0.000  0.000  0.010  0.007  0.002  0.002  0.356  0.000  0.053  0.430
tot  0.000  0.001  0.019  0.013  0.005  0.003  0.713  0.000  0.105  0.859
 
band   4 # energy    5.17149194 # occ. -0.00305930
 
ion      s     py     pz     px    dxy    dyz    dz2    dxz    dx2    tot
  1  0.000  0.000  0.001  0.001  0.242  0.244  0.005  0.007  0.002  0.503
  2  0.000  0.000  0.001  0.001  0.242  0.244  0.005  0.007  0.002  0.503
tot  0.000  0.000  0.002  0.002  0.484  0.488  0.011  0.015  0.004  1.005
 
band   5 # energy    5.17149194 # occ. -0.00305930
 
ion      s     py     pz     px    dxy    dyz    dz2    dxz    dx2    tot
  1  0.000  0.001  0.000  0.000  0.087  0.085  0.002  0.321  0.005  0.503
  2  0.000  0.001  0.000  0.000  0.087  0.085  0.002  0.321  0.005  0.503
tot  0.000  0.003  0.001  0.001  0.174  0.170  0.004  0.643  0.011  1.005
 
band   6 # energy    5.99442798 # occ.  0.00000000
 
ion      s     py     pz     px    dxy    dyz    dz2    dxz    dx2    tot
  1  0.000  0.002  0.002  0.002  0.165  0.165  0.000  0.165  0.000  0.501
  2  0.000  0.002  0.002  0.002  0.165  0.165  0.000  0.165  0.000  0.501
tot  0.001  0.003  0.003  0.003  0.331  0.331  0.000  0.331  0.000  1.003
 
band   7 # energy    6.42447659 # occ.  0.00000000
 
ion      s     py     pz     px    dxy    dyz    dz2    dxz    dx2    tot
  1  0.008  0.006  0.006  0.006  0.151  0.151  0.000  0.151  0.000  0.480
  2  0.008  0.006  0.006  0.006  0.151  0.151  0.000  0.151  0.000  0.480
tot  0.017  0.012  0.012  0.012  0.303  0.303  0.000  0.303  0.000  0.961
 
band   8 # energy    6.93616539 # occ.  0.00000000
 
ion      s     py     pz     px    dxy    dyz    dz2    dxz    dx2    tot
  1  0.000  0.000  0.000  0.000  0.005  0.003  0.438  0.001  0.043  0.489
  2  0.000  0.000  0.000  0.000  0.005  0.003  0.438  0.001  0.043  0.489
tot  0.000  0.000  0.000  0.000  0.010  0.005  0.875  0.001  0.087  0.979
 
band   9 # energy    6.93616539 # occ.  0.00000000
 
ion      s     py     pz     px    dxy    dyz    dz2    dxz    dx2    tot
  1  0.000  0.000  0.000  0.000  0.000  0.003  0.043  0.005  0.438  0.489
  2  0.000  0.000  0.000  0.000  0.000  0.003  0.043  0.005  0.438  0.489
tot  0.000  0.000  0.000  0.000  0.001  0.006  0.087  0.010  0.875  0.979
 
band  10 # energy    7.61729158 # occ.  0.00000000
 
ion      s     py     pz     px    dxy    dyz    dz2    dxz    dx2    tot
  1  0.000  0.006  0.001  0.002  0.041  0.126  0.001  0.309  0.008  0.495
  2  0.000  0.006  0.001  0.002  0.041  0.126  0.001  0.309  0.008  0.495
tot  0.000  0.012  0.002  0.005  0.082  0.253  0.002  0.618  0.015  0.989
 
band  11 # energy    7.61729160 # occ.  0.00000000
 
ion      s     py     pz     px    dxy    dyz    dz2    dxz    dx2    tot
  1  0.000  0.000  0.005  0.004  0.277  0.191  0.008  0.008  0.001  0.495
  2  0.000  0.000  0.005  0.004  0.277  0.191  0.008  0.008  0.001  0.495
tot  0.000  0.000  0.011  0.007  0.554  0.382  0.015  0.017  0.002  0.989
 
band  12 # energy   14.64001948 # occ.  0.00000000
 
ion      s     py     pz     px    dxy    dyz    dz2    dxz    dx2    tot
  1  0.000  0.189  0.025  0.077  0.002  0.007  0.010  0.017  0.071  0.399
  2  0.000  0.189  0.025  0.077  0.002  0.007  0.010  0.017  0.071  0.399
tot  0.000  0.379  0.050  0.155  0.005  0.014  0.021  0.034  0.141  0.798
 

 k-point    2 :    0.37500000 0.12500000 0.12500000     weight = 0.37500000

band   1 # energy    0.57418800 # occ.  1.00000000
 
ion      s     py     pz     px    dxy    dyz    dz2    dxz    dx2    tot
  1  0.228  0.007  0.007  0.074  0.010  0.000  0.005  0.010  0.014  0.356
  2  0.228  0.007  0.007  0.074  0.010  0.000  0.005  0.010  0.014  0.356
tot  0.456  0.015  0.015  0.147  0.020  0.000  0.010  0.020  0.029  0.712
 
band   2 # energy    2.93671147 # occ.  1.00000000
 
ion      s     py     pz     px    dxy    dyz    dz2    dxz    dx2    tot
  1  0.059  0.003  0.003  0.088  0.021  0.000  0.051  0.021  0.154  0.399
  2  0.059  0.003  0.003  0.088  0.021  0.000  0.051  0.021  0.154  0.399
tot  0.118  0.005  0.005  0.175  0.042  0.000  0.103  0.042  0.308  0.799
 
band   3 # energy    3.88987653 # occ.  1.00000000
 
ion      s     py     pz     px    dxy    dyz    dz2    dxz    dx2    tot
  1  0.000  0.009  0.009  0.000  0.028  0.000  0.274  0.028  0.091  0.440
  2  0.000  0.009  0.009  0.000  0.028  0.000  0.274  0.028  0.091  0.440
tot  0.000  0.018  0.018  0.000  0.057  0.000  0.548  0.057  0.183  0.879
 
band   4 # energy    4.83471370 # occ.  1.03260550
 
ion      s     py     pz     px    dxy    dyz    dz2    dxz    dx2    tot
  1  0.000  0.008  0.008  0.000  0.163  0.000  0.102  0.163  0.034  0.477
  2  0.000  0.008  0.008  0.000  0.163  0.000  0.102  0.163  0.034  0.477
tot  0.000  0.016  0.016  0.000  0.325  0.000  0.204  0.325  0.068  0.955
 
band   5 # energy    4.97132856 # occ.  0.28292427
 
ion      s     py     pz     px    dxy    dyz    dz2    dxz    dx2    tot
  1  0.001  0.003  0.003  0.008  0.126  0.226  0.000  0.126  0.000  0.493
  2  0.001  0.003  0.003  0.008  0.126  0.226  0.000  0.126  0.000  0.493
tot  0.002  0.005  0.005  0.017  0.253  0.452  0.000  0.253  0.000  0.987
 
band   6 # energy    5.34452252 # occ. -0.00000012
 
ion      s     py     pz     px    dxy    dyz    dz2    dxz    dx2    tot
  1  0.004  0.008  0.008  0.003  0.131  0.163  0.008  0.131  0.025  0.480
  2  0.004  0.008  0.008  0.003  0.131  0.163  0.008  0.131  0.025  0.480
tot  0.008  0.016  0.016  0.005  0.261  0.325  0.017  0.261  0.051  0.961
 
band   7 # energy    6.28305822 # occ.  0.00000000
 
ion      s     py     pz     px    dxy    dyz    dz2    dxz    dx2    tot
  1  0.000  0.001  0.001  0.000  0.076  0.000  0.248  0.076  0.083  0.484
  2  0.000  0.001  0.001  0.000  0.076  0.000  0.248  0.076  0.083  0.484
tot  0.000  0.002  0.002  0.000  0.151  0.000  0.496  0.151  0.165  0.968
 
band   8 # energy    6.36176301 # occ.  0.00000000
 
ion      s     py     pz     px    dxy    dyz    dz2    dxz    dx2    tot
  1  0.000  0.009  0.009  0.000  0.197  0.000  0.055  0.197  0.018  0.484
  2  0.000  0.009  0.009  0.000  0.197  0.000  0.055  0.197  0.018  0.484
tot  0.000  0.017  0.017  0.000  0.394  0.000  0.109  0.394  0.036  0.968
 
band   9 # energy    6.98165014 # occ.  0.00000000
 
ion      s     py     pz     px    dxy    dyz    dz2    dxz    dx2    tot
  1  0.001  0.005  0.005  0.004  0.106  0.268  0.001  0.106  0.004  0.499
  2  0.001  0.005  0.005  0.004  0.106  0.268  0.001  0.106  0.004  0.499
tot  0.001  0.009  0.009  0.008  0.211  0.536  0.003  0.211  0.009  0.998
 
band  10 # energy    7.47517057 # occ.  0.00000000
 
ion      s     py     pz     px    dxy    dyz    dz2    dxz    dx2    tot
  1  0.011  0.001  0.001  0.004  0.000  0.004  0.120  0.000  0.359  0.499
  2  0.011  0.001  0.001  0.004  0.000  0.004  0.120  0.000  0.359  0.499
tot  0.021  0.001  0.001  0.008  0.000  0.009  0.239  0.000  0.718  0.998
 
band  11 # energy    7.47943870 # occ.  0.00000000
 
ion      s     py     pz     px    dxy    dyz    dz2    dxz    dx2    tot
  1  0.006  0.000  0.000  0.004  0.057  0.310  0.015  0.057  0.046  0.496
  2  0.006  0.000  0.000  0.004  0.057  0.310  0.015  0.057  0.046  0.496
tot  0.013  0.000  0.000  0.008  0.114  0.621  0.030  0.114  0.091  0.992
 
band  12 # energy    9.57472025 # occ.  0.00000000
 
ion      s     py     pz     px    dxy    dyz    dz2    dxz    dx2    tot
  1  0.063  0.009  0.009  0.090  0.024  0.021  0.052  0.024  0.156  0.446
  2  0.063  0.009  0.009  0.090  0.024  0.021  0.052  0.024  0.156  0.446
tot  0.126  0.017  0.017  0.180  0.048  0.042  0.104  0.048  0.311  0.893
 

 k-point    3 :    0.37500000 0.37500000 0.12500000     weight = 0.37500000

band   1 # energy    1.87991444 # occ.  1.00000000
 
ion      s     py     pz     px    dxy    dyz    dz2    dxz    dx2    tot
  1  0.139  0.028  0.009  0.028  0.138  0.002  0.049  0.002  0.000  0.395
  2  0.139  0.028  0.009  0.028  0.138  0.002  0.049  0.002  0.000  0.395
tot  0.279  0.055  0.019  0.055  0.276  0.004  0.098  0.004  0.000  0.789
 
band   2 # energy    2.75457620 # occ.  1.00000000
 
ion      s     py     pz     px    dxy    dyz    dz2    dxz    dx2    tot
  1  0.057  0.006  0.008  0.006  0.213  0.002  0.139  0.002  0.000  0.433
  2  0.057  0.006  0.008  0.006  0.213  0.002  0.139  0.002  0.000  0.433
tot  0.114  0.011  0.017  0.011  0.427  0.004  0.278  0.004  0.000  0.866
 
band   3 # energy    4.26809493 # occ.  1.00000000
 
ion      s     py     pz     px    dxy    dyz    dz2    dxz    dx2    tot
  1  0.000  0.002  0.000  0.002  0.000  0.242  0.000  0.242  0.004  0.492
  2  0.000  0.002  0.000  0.002  0.000  0.242  0.000  0.242  0.004  0.492
tot  0.000  0.005  0.000  0.005  0.000  0.483  0.000  0.483  0.008  0.983
 
band   4 # energy    4.44711826 # occ.  1.00000000
 
ion      s     py     pz     px    dxy    dyz    dz2    dxz    dx2    tot
  1  0.002  0.002  0.007  0.002  0.003  0.227  0.019  0.227  0.000  0.488
  2  0.002  0.002  0.007  0.002  0.003  0.227  0.019  0.227  0.000  0.488
tot  0.003  0.004  0.014  0.004  0.005  0.454  0.037  0.454  0.000  0.976
 
band   5 # energy    4.74961314 # occ.  1.00935276
 
ion      s     py     pz     px    dxy    dyz    dz2    dxz    dx2    tot
  1  0.000  0.073  0.000  0.073  0.000  0.026  0.000  0.026  0.208  0.406
  2  0.000  0.073  0.000  0.073  0.000  0.026  0.000  0.026  0.208  0.406
tot  0.000  0.146  0.000  0.146  0.000  0.052  0.000  0.052  0.415  0.811
 
band   6 # energy    4.85517215 # occ.  1.01049046
 
ion      s     py     pz     px    dxy    dyz    dz2    dxz    dx2    tot
  1  0.016  0.061  0.001  0.061  0.132  0.042  0.064  0.042  0.000  0.418
  2  0.016  0.061  0.001  0.061  0.132  0.042  0.064  0.042  0.000  0.418
tot  0.031  0.122  0.002  0.122  0.264  0.084  0.127  0.084  0.000  0.836
 
band   7 # energy    6.77314731 # occ.  0.00000000
 
ion      s     py     pz     px    dxy    dyz    dz2    dxz    dx2    tot
  1  0.007  0.001  0.001  0.001  0.170  0.011  0.293  0.011  0.000  0.494
  2  0.007  0.001  0.001  0.001  0.170  0.011  0.293  0.011  0.000  0.494
tot  0.013  0.001  0.002  0.001  0.340  0.022  0.586  0.022  0.000  0.988
 
band   8 # energy    6.94577694 # occ.  0.00000000
 
ion      s     py     pz     px    dxy    dyz    dz2    dxz    dx2    tot
  1  0.002  0.000  0.000  0.000  0.120  0.007  0.361  0.007  0.000  0.498
  2  0.002  0.000  0.000  0.000  0.120  0.007  0.361  0.007  0.000  0.498
tot  0.005  0.000  0.001  0.000  0.240  0.014  0.722  0.014  0.000  0.996
 
band   9 # energy    7.25633300 # occ.  0.00000000
 
ion      s     py     pz     px    dxy    dyz    dz2    dxz    dx2    tot
  1  0.000  0.000  0.000  0.000  0.000  0.002  0.000  0.002  0.497  0.502
  2  0.000  0.000  0.000  0.000  0.000  0.002  0.000  0.002  0.497  0.502
tot  0.000  0.000  0.000  0.000  0.000  0.005  0.000  0.005  0.994  1.004
 
band  10 # energy    7.65760528 # occ.  0.00000000
 
ion      s     py     pz     px    dxy    dyz    dz2    dxz    dx2    tot
  1  0.000  0.008  0.000  0.008  0.000  0.150  0.000  0.150  0.179  0.497
  2  0.000  0.008  0.000  0.008  0.000  0.150  0.000  0.150  0.179  0.497
tot  0.000  0.017  0.000  0.017  0.000  0.301  0.000  0.301  0.358  0.993
 
band  11 # energy    8.17982369 # occ.  0.00000000
 
ion      s     py     pz     px    dxy    dyz    dz2    dxz    dx2    tot
  1  0.007  0.014  0.005  0.014  0.049  0.197  0.000  0.197  0.000  0.483
  2  0.007  0.014  0.005  0.014  0.049  0.197  0.000  0.197  0.000  0.483
tot  0.014  0.027  0.010  0.027  0.097  0.395  0.000  0.395  0.000  0.966
 
band  12 # energy    9.92642426 # occ.  0.00000000
 
ion      s     py     pz     px    dxy    dyz    dz2    dxz    dx2    tot