PROCAR lm decomposed
# of k-points:    4         # of bands:  12         # of ions:   2

 k-point    1 :    0.12500000 0.12500000 0.12500000     weight = 0.12500000

band   1 # energy   -1.92589884 # occ.  1.00000000
 
ion      s     py     pz     px    dxy    dyz    dz2    dxz    dx2    tot
  1  0.317  0.010  0.010  0.010  0.001  0.001  0.000  0.001  0.000  0.351
  2  0.317  0.010  0.010  0.010  0.001  0.001  0.000  0.001  0.000  0.351
tot  0.634  0.020  0.020  0.020  0.003  0.003  0.000  0.003  0.000  0.703
 
band   2 # energy    0.96107105 # occ.  1.00000000
 
ion      s     py     pz     px    dxy    dyz    dz2    dxz    dx2    tot
  1  0.000  0.003  0.000  0.006  0.000  0.002  0.027  0.001  0.408  0.448
  2  0.000  0.003  0.000  0.006  0.000  0.002  0.027  0.001  0.408  0.448
tot  0.000  0.007  0.001  0.012  0.000  0.004  0.054  0.002  0.816  0.896
 
band   3 # energy    0.96107106 # occ.  1.00000000
 
ion      s     py     pz     px    dxy    dyz    dz2    dxz    dx2    tot
  1  0.000  0.003  0.006  0.001  0.002  0.000  0.408  0.001  0.027  0.448
  2  0.000  0.003  0.006  0.001  0.002  0.000  0.408  0.001  0.027  0.448
tot  0.000  0.006  0.012  0.001  0.004  0.000  0.816  0.002  0.054  0.896
 
band   4 # energy    2.60843366 # occ.  1.00000000
 
ion      s     py     pz     px    dxy    dyz    dz2    dxz    dx2    tot
  1  0.000  0.001  0.000  0.001  0.027  0.296  0.001  0.171  0.006  0.502
  2  0.000  0.001  0.000  0.001  0.027  0.296  0.001  0.171  0.006  0.502
tot  0.000  0.001  0.000  0.002  0.055  0.593  0.001  0.342  0.011  1.005
 
band   5 # energy    2.60843366 # occ.  1.00000000
 
ion      s     py     pz     px    dxy    dyz    dz2    dxz    dx2    tot
  1  0.000  0.000  0.001  0.000  0.302  0.033  0.006  0.159  0.001  0.502
  2  0.000  0.000  0.001  0.000  0.302  0.033  0.006  0.159  0.001  0.502
tot  0.000  0.001  0.002  0.000  0.605  0.067  0.011  0.318  0.001  1.005
 
band   6 # energy    3.31305982 # occ.  1.00000000
 
ion      s     py     pz     px    dxy    dyz    dz2    dxz    dx2    tot
  1  0.001  0.001  0.001  0.001  0.165  0.165  0.000  0.165  0.000  0.499
  2  0.001  0.001  0.001  0.001  0.165  0.165  0.000  0.165  0.000  0.499
tot  0.002  0.003  0.003  0.003  0.329  0.329  0.000  0.329  0.000  0.999
 
band   7 # energy    3.80307702 # occ.  1.00000000
 
ion      s     py     pz     px    dxy    dyz    dz2    dxz    dx2    tot
  1  0.005  0.003  0.003  0.003  0.157  0.157  0.000  0.157  0.000  0.486
  2  0.005  0.003  0.003  0.003  0.157  0.157  0.000  0.157  0.000  0.486
tot  0.009  0.007  0.007  0.007  0.314  0.314  0.000  0.314  0.000  0.972
 
band   8 # energy    3.93134929 # occ.  1.00000000
 
ion      s     py     pz     px    dxy    dyz    dz2    dxz    dx2    tot
  1  0.000  0.000  0.000  0.000  0.000  0.004  0.040  0.002  0.444  0.491
  2  0.000  0.000  0.000  0.000  0.000  0.004  0.040  0.002  0.444  0.491
tot  0.000  0.000  0.000  0.000  0.001  0.008  0.081  0.005  0.888  0.982
 
band   9 # energy    3.93134929 # occ.  1.00000000
 
ion      s     py     pz     px    dxy    dyz    dz2    dxz    dx2    tot
  1  0.000  0.000  0.000  0.000  0.004  0.000  0.444  0.002  0.040  0.491
  2  0.000  0.000  0.000  0.000  0.004  0.000  0.444  0.002  0.040  0.491
tot  0.000  0.000  0.000  0.000  0.008  0.001  0.888  0.004  0.081  0.982
 
band  10 # energy    4.74837908 # occ.  1.00000000
 
ion      s     py     pz     px    dxy    dyz    dz2    dxz    dx2    tot
  1  0.000  0.002  0.000  0.003  0.020  0.293  0.000  0.172  0.005  0.496
  2  0.000  0.002  0.000  0.003  0.020  0.293  0.000  0.172  0.005  0.496
tot  0.000  0.004  0.000  0.006  0.040  0.585  0.001  0.344  0.011  0.992
 
band  11 # energy    4.74837909 # occ.  1.00000000
 
ion      s     py     pz     px    dxy    dyz    dz2    dxz    dx2    tot
  1  0.000  0.002  0.003  0.000  0.303  0.031  0.005  0.151  0.000  0.496
  2  0.000  0.002  0.003  0.000  0.303  0.031  0.005  0.151  0.000  0.496
tot  0.000  0.003  0.006  0.001  0.606  0.061  0.011  0.302  0.001  0.992
 
band  12 # energy   13.68151415 # occ.  0.00000000
 
ion      s     py     pz     px    dxy    dyz    dz2    dxz    dx2    tot
  1  0.000  0.108  0.013  0.183  0.001  0.011  0.005  0.006  0.069  0.394
  2  0.000  0.108  0.013  0.183  0.001  0.011  0.005  0.006  0.069  0.394
tot  0.000  0.215  0.025  0.366  0.001  0.022  0.009  0.013  0.137  0.788
 

 k-point    2 :    0.37500000 0.12500000 0.12500000     weight = 0.37500000

band   1 # energy    0.02564517 # occ.  1.00000000
 
ion      s     py     pz     px    dxy    dyz    dz2    dxz    dx2    tot
  1  0.213  0.006  0.006  0.064  0.022  0.000  0.009  0.022  0.027  0.370
  2  0.213  0.006  0.006  0.064  0.022  0.000  0.009  0.022  0.027  0.370
tot  0.427  0.011  0.011  0.128  0.045  0.000  0.018  0.045  0.054  0.739
 
band   2 # energy    1.38688193 # occ.  1.00000000
 
ion      s     py     pz     px    dxy    dyz    dz2    dxz    dx2    tot
  1  0.037  0.001  0.001  0.053  0.029  0.001  0.070  0.029  0.211  0.432
  2  0.037  0.001  0.001  0.053  0.029  0.001  0.070  0.029  0.211  0.432
tot  0.074  0.002  0.002  0.107  0.058  0.001  0.141  0.058  0.422  0.865
 
band   3 # energy    1.65073980 # occ.  1.00000000
 
ion      s     py     pz     px    dxy    dyz    dz2    dxz    dx2    tot
  1  0.000  0.005  0.005  0.000  0.023  0.000  0.300  0.023  0.100  0.455
  2  0.000  0.005  0.005  0.000  0.023  0.000  0.300  0.023  0.100  0.455
tot  0.000  0.011  0.011  0.000  0.045  0.000  0.599  0.045  0.200  0.911
 
band   4 # energy    2.42375051 # occ.  1.00000000
 
ion      s     py     pz     px    dxy    dyz    dz2    dxz    dx2    tot
  1  0.000  0.006  0.006  0.000  0.158  0.000  0.117  0.158  0.039  0.484
  2  0.000  0.006  0.006  0.000  0.158  0.000  0.117  0.158  0.039  0.484
tot  0.000  0.011  0.011  0.000  0.317  0.000  0.234  0.317  0.078  0.968
 
band   5 # energy    2.53242801 # occ.  1.00000000
 
ion      s     py     pz     px    dxy    dyz    dz2    dxz    dx2    tot
  1  0.005  0.002  0.002  0.010  0.108  0.255  0.000  0.108  0.001  0.492
  2  0.005  0.002  0.002  0.010  0.108  0.255  0.000  0.108  0.001  0.492
tot  0.010  0.005  0.005  0.020  0.216  0.510  0.001  0.216  0.002  0.984
 
band   6 # energy    2.86866959 # occ.  1.00000000
 
ion      s     py     pz     px    dxy    dyz    dz2    dxz    dx2    tot
  1  0.003  0.005  0.005  0.002  0.127  0.169  0.012  0.127  0.037  0.486
  2  0.003  0.005  0.005  0.002  0.127  0.169  0.012  0.127  0.037  0.486
tot  0.005  0.010  0.010  0.003  0.253  0.337  0.025  0.253  0.074  0.972
 
band   7 # energy    3.45003434 # occ.  1.00000000
 
ion      s     py     pz     px    dxy    dyz    dz2    dxz    dx2    tot
  1  0.000  0.001  0.001  0.000  0.083  0.000  0.240  0.083  0.080  0.488
  2  0.000  0.001  0.001  0.000  0.083  0.000  0.240  0.083  0.080  0.488
tot  0.000  0.002  0.002  0.000  0.166  0.000  0.481  0.166  0.160  0.977
 
band   8 # energy    3.66274567 # occ.  1.00000000
 
ion      s     py     pz     px    dxy    dyz    dz2    dxz    dx2    tot
  1  0.000  0.007  0.007  0.000  0.210  0.000  0.041  0.210  0.014  0.488
  2  0.000  0.007  0.007  0.000  0.210  0.000  0.041  0.210  0.014  0.488
tot  0.000  0.013  0.013  0.000  0.419  0.000  0.083  0.419  0.028  0.975
 
band   9 # energy    4.21103315 # occ.  1.00000000
 
ion      s     py     pz     px    dxy    dyz    dz2    dxz    dx2    tot
  1  0.000  0.003  0.003  0.002  0.098  0.204  0.023  0.098  0.070  0.501
  2  0.000  0.003  0.003  0.002  0.098  0.204  0.023  0.098  0.070  0.501
tot  0.000  0.005  0.005  0.004  0.197  0.407  0.047  0.197  0.140  1.002
 
band  10 # energy    4.52993100 # occ.  1.00000000
 
ion      s     py     pz     px    dxy    dyz    dz2    dxz    dx2    tot
  1  0.025  0.003  0.003  0.012  0.016  0.040  0.093  0.016  0.280  0.488
  2  0.025  0.003  0.003  0.012  0.016  0.040  0.093  0.016  0.280  0.488
tot  0.050  0.006  0.006  0.024  0.032  0.079  0.187  0.032  0.560  0.976
 
band  11 # energy    4.60235461 # occ.  1.00000000
 
ion      s     py     pz     px    dxy    dyz    dz2    dxz    dx2    tot
  1  0.004  0.000  0.000  0.003  0.066  0.317  0.010  0.066  0.029  0.496
  2  0.004  0.000  0.000  0.003  0.066  0.317  0.010  0.066  0.029  0.496
tot  0.009  0.000  0.000  0.006  0.133  0.634  0.019  0.133  0.058  0.993
 
band  12 # energy    7.78349848 # occ.  0.00000000
 
ion      s     py     pz     px    dxy    dyz    dz2    dxz    dx2    tot
  1  0.089  0.010  0.010  0.126  0.017  0.009  0.035  0.017  0.106  0.418
  2  0.089  0.010  0.010  0.126  0.017  0.009  0.035  0.017  0.106  0.418
tot  0.179  0.019  0.019  0.252  0.034  0.017  0.071  0.034  0.212  0.837
 

 k-point    3 :    0.37500000 0.37500000 0.12500000     weight = 0.37500000

band   1 # energy    0.59544628 # occ.  1.00000000
 
ion      s     py     pz     px    dxy    dyz    dz2    dxz    dx2    tot
  1  0.094  0.010  0.008  0.010  0.219  0.000  0.087  0.000  0.000  0.429
  2  0.094  0.010  0.008  0.010  0.219  0.000  0.087  0.000  0.000  0.429
tot  0.188  0.021  0.015  0.021  0.438  0.001  0.174  0.001  0.000  0.859
 
band   2 # energy    0.92233436 # occ.  1.00000000
 
ion      s     py     pz     px    dxy    dyz    dz2    dxz    dx2    tot
  1  0.040  0.004  0.006  0.004  0.225  0.003  0.165  0.003  0.000  0.450
  2  0.040  0.004  0.006  0.004  0.225  0.003  0.165  0.003  0.000  0.450
tot  0.080  0.008  0.012  0.008  0.450  0.006  0.330  0.006  0.000  0.899
 
band   3 # energy    1.88418293 # occ.  1.00000000
 
ion      s     py     pz     px    dxy    dyz    dz2    dxz    dx2    tot
  1  0.000  0.002  0.000  0.002  0.000  0.243  0.000  0.243  0.004  0.494
  2  0.000  0.002  0.000  0.002  0.000  0.243  0.000  0.243  0.004  0.494
tot  0.000  0.003  0.000  0.003  0.000  0.487  0.000  0.487  0.008  0.988
 
band   4 # energy    2.08458444 # occ.  1.00000000
 
ion      s     py     pz     px    dxy    dyz    dz2    dxz    dx2    tot
  1  0.001  0.002  0.005  0.002  0.002  0.228  0.025  0.228  0.000  0.492
  2  0.001  0.002  0.005  0.002  0.002  0.228  0.025  0.228  0.000  0.492
tot  0.002  0.003  0.010  0.003  0.004  0.455  0.050  0.455  0.000  0.983
 
band   5 # energy    2.89075444 # occ.  1.00000000
 
ion      s     py     pz     px    dxy    dyz    dz2    dxz    dx2    tot
  1  0.000  0.032  0.000  0.032  0.000  0.023  0.000  0.023  0.342  0.453
  2  0.000  0.032  0.000  0.032  0.000  0.023  0.000  0.023  0.342  0.453
tot  0.000  0.065  0.000  0.065  0.000  0.047  0.000  0.047  0.684  0.906
 
band   6 # energy    3.27326873 # occ.  1.00000000
 
ion      s     py     pz     px    dxy    dyz    dz2    dxz    dx2    tot
  1  0.039  0.053  0.000  0.053  0.047  0.100  0.038  0.100  0.000  0.429
  2  0.039  0.053  0.000  0.053  0.047  0.100  0.038  0.100  0.000  0.429
tot  0.078  0.105  0.000  0.105  0.095  0.199  0.076  0.199  0.000  0.858
 
band   7 # energy    3.90292140 # occ.  1.00000000
 
ion      s     py     pz     px    dxy    dyz    dz2    dxz    dx2    tot
  1  0.006  0.001  0.001  0.001  0.189  0.012  0.274  0.012  0.000  0.496
  2  0.006  0.001  0.001  0.001  0.189  0.012  0.274  0.012  0.000  0.496
tot  0.011  0.002  0.002  0.002  0.378  0.024  0.549  0.024  0.000  0.992
 
band   8 # energy    3.97085077 # occ.  1.00000000
 
ion      s     py     pz     px    dxy    dyz    dz2    dxz    dx2    tot
  1  0.003  0.000  0.000  0.000  0.127  0.006  0.355  0.006  0.000  0.498
  2  0.003  0.000  0.000  0.000  0.127  0.006  0.355  0.006  0.000  0.498
tot  0.005  0.000  0.001  0.000  0.254  0.012  0.711  0.012  0.000  0.996
 
band   9 # energy    4.17370930 # occ.  1.00000000
 
ion      s     py     pz     px    dxy    dyz    dz2    dxz    dx2    tot
  1  0.000  0.000  0.000  0.000  0.000  0.002  0.000  0.002  0.497  0.501
  2  0.000  0.000  0.000  0.000  0.000  0.002  0.000  0.002  0.497  0.501
tot  0.000  0.000  0.000  0.000  0.000  0.005  0.000  0.005  0.993  1.003
 
band  10 # energy    4.76058117 # occ.  1.00000000
 
ion      s     py     pz     px    dxy    dyz    dz2    dxz    dx2    tot
  1  0.000  0.008  0.000  0.008  0.000  0.193  0.000  0.193  0.094  0.495
  2  0.000  0.008  0.000  0.008  0.000  0.193  0.000  0.193  0.094  0.495
tot  0.000  0.015  0.000  0.015  0.000  0.386  0.000  0.386  0.188  0.990
 
band  11 # energy    5.67084000 # occ.  0.66666667
 
ion      s     py     pz     px    dxy    dyz    dz2    dxz    dx2    tot
  1  0.031  0.034  0.005  0.034  0.064  0.142  0.001  0.142  0.000  0.454
  2  0.031  0.034  0.005  0.034  0.064  0.142  0.001  0.142  0.000  0.454
tot  0.062  0.068  0.010  0.068  0.128  0.284  0.003  0.284  0.000  0.908
 
band  12 # energy    8.38434087 # occ.  0.00000000
 
ion      s     py     pz     px    dxy    dyz    dz2    dxz    dx2    tot
  1  0.000  0.124  0.000  0.124  0.000  0.036  0.000  0.036  0.074  0.395
  2  0.000  0.124  0.000  0.124  0.000  0.036  0.000  0.036  0.074  0.395
tot  0.000  0.247  0.000  0.248  0.000  0.073  0.000  0.073  0.149  0.789
 

 k-point    4 :    0.37500000 0.37500000 0.37500000     weight = 0.12500000

band   1 # energy    1.45026501 # occ.  1.00000000
 
ion      s     py     pz     px    dxy    dyz    dz2    dxz    dx2    tot
  1  0.017  0.003  0.003  0.003  0.150  0.150  0.000  0.150  0.000  0.477
  2  0.017  0.003  0.003  0.003  0.150  0.150  0.000  0.150  0.000  0.477
tot  0.034  0.006  0.006  0.006  0.301  0.301  0.000  0.301  0.000  0.955
 
band   2 # energy    1.83519415 # occ.  1.00000000
 
ion      s     py     pz     px    dxy    dyz    dz2    dxz    dx2    tot
  1  0.000  0.005  0.005  0.018  0.077  0.278  0.007  0.071  0.019  0.481
  2  0.000  0.005  0.005  0.018  0.077  0.278  0.007  0.071  0.019  0.481
tot  0.000  0.009  0.010  0.037  0.153  0.557  0.014  0.143  0.039  0.961
 
band   3 # energy    1.83519415 # occ.  1.00000000
 
ion      s     py     pz     px    dxy    dyz    dz2    dxz    dx2    tot
  1  0.000  0.014  0.014  0.000  0.208  0.006  0.019  0.213  0.007  0.481
  2  0.000  0.014  0.014  0.000  0.208  0.006  0.019  0.213  0.007  0.481
tot  0.000  0.028  0.027  0.001  0.415  0.012  0.039  0.426  0.014  0.961
 
band   4 # energy    2.00231883 # occ.  1.00000000
 
ion      s     py     pz     px    dxy    dyz    dz2    dxz    dx2    tot
  1  0.054  0.030  0.030  0.030  0.096  0.096  0.000  0.096  0.000  0.432
  2  0.054  0.030  0.030  0.030  0.096  0.096  0.000  0.096  0.000  0.432
tot  0.109  0.060  0.060  0.060  0.192  0.192  0.000  0.192  0.000  0.864
 
band   5 # energy    2.13804968 # occ.  1.00000000
 
ion      s     py     pz     px    dxy    dyz    dz2    dxz    dx2    tot
  1  0.000  0.030  0.030  0.000  0.146  0.002  0.075  0.146  0.025  0.455
  2  0.000  0.030  0.030  0.000  0.146  0.002  0.075  0.146  0.025  0.455
tot  0.000  0.060  0.060  0.001  0.293  0.003  0.150  0.292  0.051  0.910
 
band   6 # energy    2.13804977 # occ.  1.00000000
 
ion      s     py     pz     px    dxy    dyz    dz2    dxz    dx2    tot
  1  0.000  0.010  0.010  0.040  0.050  0.195  0.025  0.050  0.075  0.455
  2  0.000  0.010  0.010  0.040  0.050  0.195  0.025  0.050  0.075  0.455
tot  0.000  0.020  0.020  0.080  0.099  0.389  0.051  0.100  0.150  0.910
 
band   7 # energy    4.18379380 # occ.  1.00000000
 
ion      s     py     pz     px    dxy    dyz    dz2    dxz    dx2    tot
  1  0.000  0.000  0.000  0.000  0.019  0.010  0.442  0.002  0.030  0.503
  2  0.000  0.000  0.000  0.000  0.019  0.010  0.442  0.002  0.030  0.503
tot  0.000  0.000  0.000  0.000  0.037  0.019  0.884  0.003  0.061  1.005
 
band   8 # energy    4.18379380 # occ.  1.00000000
 
ion      s     py     pz     px    dxy    dyz    dz2    dxz    dx2    tot
  1  0.000  0.000  0.000  0.000  0.001  0.010  0.030  0.018  0.442  0.503
  2  0.000  0.000  0.000  0.000  0.001  0.010  0.030  0.018  0.442  0.503
tot  0.000  0.000  0.000  0.000  0.003  0.021  0.061  0.036  0.884  1.005
 
band   9 # energy    4.20247161 # occ.  1.00000000
 
ion      s     py     pz     px    dxy    dyz    dz2    dxz    dx2    tot
  1  0.000  0.001  0.001  0.002  0.020  0.075  0.101  0.019  0.284  0.502
  2  0.000  0.001  0.001  0.002  0.020  0.075  0.101  0.019  0.284  0.502
tot  0.000  0.001  0.001  0.004  0.040  0.150  0.201  0.038  0.569  1.004
 
band  10 # energy    4.20247161 # occ.  1.00000000
 
ion      s     py     pz     px    dxy    dyz    dz2    dxz    dx2    tot
  1  0.000  0.002  0.002  0.000  0.056  0.001  0.284  0.057  0.101  0.502
  2  0.000  0.002  0.002  0.000  0.056  0.001  0.284  0.057  0.101  0.502
tot  0.000  0.003  0.003  0.000  0.112  0.002  0.569  0.114  0.201  1.004
 
band  11 # energy    8.33263174 # occ.  0.00000000
 
ion      s     py     pz     px    dxy    dyz    dz2    dxz    dx2    tot
  1  0.061  0.038  0.038  0.038  0.081  0.081  0.000  0.081  0.000  0.417
  2  0.061  0.038  0.038  0.038  0.081  0.081  0.000  0.081  0.000  0.417
tot  0.123  0.076  0.076  0.076  0.161  0.161  0.000  0.161  0.000  0.834
 
band  12 # energy   11.95334299 # occ.  0.00000000
 
ion      s     py     pz     px    dxy    dyz    dz2    dxz    dx2    tot
  1  0.000  0.109  0.109  0.001  0.072  0.001  0.020  0.072  0.007  0.389
  2  0.000  0.109  0.109  0.001  0.072  0.001  0.020  0.072  0.007  0.389
tot  0.000  0.217  0.218  0.002  0.144  0.002  0.039  0.143  0.013  0.778
 
# of k-points:    4         # of bands:  12         # of ions:   2

 k-point    1 :    0.12500000 0.12500000 0.12500000     weight = 0.12500000

band   1 # energy   -1.63819567 # occ.  1.00000000
 
ion      s     py     pz     px    dxy    dyz    dz2    dxz    dx2    tot
  1  0.316  0.010  0.010  0.010  0.001  0.001  0.000  0.001  0.000  0.349
  2  0.316  0.010  0.010  0.010  0.001  0.001  0.000  0.001  0.000  0.349
tot  0.633  0.020  0.020  0.020  0.002  0.002  0.000  0.002  0.000  0.699
 
band   2 # energy    3.00649783 # occ.  1.00000000
 
ion      s     py     pz     px    dxy    dyz    dz2    dxz    dx2    tot
  1  0.000  0.011  0.001  0.004  0.000  0.001  0.052  0.003  0.356  0.429
  2  0.000  0.011  0.001  0.004  0.000  0.001  0.052  0.003  0.356  0.429
tot  0.000  0.022  0.003  0.009  0.001  0.002  0.105  0.005  0.711  0.858
 
band   3 # energy    3.00649783 # occ.  1.00000000
 
ion      s     py     pz     px    dxy    dyz    dz2    dxz    dx2    tot
  1  0.000  0.000  0.010  0.007  0.002  0.002  0.356  0.000  0.052  0.429
  2  0.000  0.000  0.010  0.007  0.002  0.002  0.356  0.000  0.052  0.429
tot  0.000  0.001  0.020  0.014  0.005  0.003  0.711  0.000  0.105  0.858
 
band   4 # energy    5.08099090 # occ. -0.03454038
 
ion      s     py     pz     px    dxy    dyz    dz2    dxz    dx2    tot
  1  0.000  0.000  0.001  0.001  0.240  0.250  0.005  0.004  0.002  0.503
  2  0.000  0.000  0.001  0.001  0.240  0.250  0.005  0.004  0.002  0.503
tot  0.000  0.000  0.002  0.002  0.479  0.501  0.010  0.008  0.004  1.005
 
band   5 # energy    5.08099090 # occ. -0.03454038
 
ion      s     py     pz     px    dxy    dyz    dz2    dxz    dx2    tot
  1  0.000  0.001  0.000  0.000  0.090  0.079  0.002  0.325  0.005  0.503
  2  0.000  0.001  0.000  0.000  0.090  0.079  0.002  0.325  0.005  0.503
tot  0.000  0.003  0.001  0.001  0.179  0.158  0.004  0.651  0.010  1.005
 
band   6 # energy    5.90454263 # occ.  0.00000000
 
ion      s     py     pz     px    dxy    dyz    dz2    dxz    dx2    tot
  1  0.000  0.002  0.002  0.002  0.165  0.165  0.000  0.165  0.000  0.501
  2  0.000  0.002  0.002  0.002  0.165  0.165  0.000  0.165  0.000  0.501
tot  0.001  0.003  0.003  0.003  0.331  0.331  0.000  0.331  0.000  1.003
 
band   7 # energy    6.33747317 # occ.  0.00000000
 
ion      s     py     pz     px    dxy    dyz    dz2    dxz    dx2    tot
  1  0.008  0.006  0.006  0.006  0.151  0.151  0.000  0.151  0.000  0.480
  2  0.008  0.006  0.006  0.006  0.151  0.151  0.000  0.151  0.000  0.480
tot  0.017  0.012  0.012  0.012  0.303  0.303  0.000  0.303  0.000  0.961
 
band   8 # energy    6.92701879 # occ.  0.00000000
 
ion      s     py     pz     px    dxy    dyz    dz2    dxz    dx2    tot
  1  0.000  0.000  0.000  0.000  0.001  0.002  0.133  0.005  0.349  0.489
  2  0.000  0.000  0.000  0.000  0.001  0.002  0.133  0.005  0.349  0.489
tot  0.000  0.000  0.000  0.000  0.003  0.003  0.266  0.009  0.698  0.978
 
band   9 # energy    6.92701879 # occ.  0.00000000
 
ion      s     py     pz     px    dxy    dyz    dz2    dxz    dx2    tot
  1  0.000  0.000  0.000  0.000  0.004  0.003  0.349  0.000  0.133  0.489
  2  0.000  0.000  0.000  0.000  0.004  0.003  0.349  0.000  0.133  0.489
tot  0.000  0.000  0.000  0.000  0.007  0.007  0.698  0.001  0.266  0.978
 
band  10 # energy    7.53489795 # occ.  0.00000000
 
ion      s     py     pz     px    dxy    dyz    dz2    dxz    dx2    tot
  1  0.000  0.006  0.001  0.002  0.041  0.126  0.001  0.309  0.008  0.495
  2  0.000  0.006  0.001  0.002  0.041  0.126  0.001  0.309  0.008  0.495
tot  0.000  0.012  0.002  0.005  0.082  0.253  0.002  0.618  0.016  0.989
 
band  11 # energy    7.53489795 # occ.  0.00000000
 
ion      s     py     pz     px    dxy    dyz    dz2    dxz    dx2    tot
  1  0.000  0.000  0.005  0.004  0.277  0.191  0.008  0.008  0.001  0.495
  2  0.000  0.000  0.005  0.004  0.277  0.191  0.008  0.008  0.001  0.495
tot  0.000  0.000  0.011  0.007  0.554  0.382  0.016  0.017  0.002  0.989
 
band  12 # energy   14.56052118 # occ.  0.00000000
 
ion      s     py     pz     px    dxy    dyz    dz2    dxz    dx2    tot
  1  0.000  0.190  0.025  0.077  0.002  0.007  0.010  0.017  0.070  0.399
  2  0.000  0.190  0.025  0.077  0.002  0.007  0.010  0.017  0.070  0.399
tot  0.000  0.379  0.050  0.155  0.005  0.014  0.021  0.034  0.141  0.798
 

 k-point    2 :    0.37500000 0.12500000 0.12500000     weight = 0.37500000

band   1 # energy    0.49651297 # occ.  1.00000000
 
ion      s     py     pz     px    dxy    dyz    dz2    dxz    dx2    tot
  1  0.228  0.007  0.007  0.074  0.010  0.000  0.005  0.010  0.014  0.356
  2  0.228  0.007  0.007  0.074  0.010  0.000  0.005  0.010  0.014  0.356
tot  0.457  0.014  0.014  0.147  0.021  0.000  0.009  0.021  0.028  0.712
 
band   2 # energy    2.88261180 # occ.  1.00000000
 
ion      s     py     pz     px    dxy    dyz    dz2    dxz    dx2    tot
  1  0.060  0.003  0.003  0.088  0.022  0.000  0.051  0.022  0.152  0.399
  2  0.060  0.003  0.003  0.088  0.022  0.000  0.051  0.022  0.152  0.399
tot  0.119  0.005  0.005  0.177  0.044  0.000  0.101  0.044  0.303  0.798
 
band   3 # energy    3.85762394 # occ.  1.00000000
 
ion      s     py     pz     px    dxy    dyz    dz2    dxz    dx2    tot
  1  0.000  0.009  0.009  0.000  0.030  0.000  0.271  0.030  0.090  0.439
  2  0.000  0.009  0.009  0.000  0.030  0.000  0.271  0.030  0.090  0.439
tot  0.000  0.018  0.018  0.000  0.060  0.000  0.542  0.060  0.181  0.879
 
band   4 # energy    4.76544959 # occ.  1.00788830
 
ion      s     py     pz     px    dxy    dyz    dz2    dxz    dx2    tot
  1  0.000  0.008  0.008  0.000  0.168  0.000  0.095  0.168  0.032  0.478
  2  0.000  0.008  0.008  0.000  0.168  0.000  0.095  0.168  0.032  0.478
tot  0.000  0.016  0.016  0.000  0.336  0.000  0.190  0.336  0.063  0.956
 
band   5 # energy    4.88066516 # occ.  1.00217652
 
ion      s     py     pz     px    dxy    dyz    dz2    dxz    dx2    tot
  1  0.001  0.003  0.003  0.008  0.126  0.226  0.000  0.126  0.000  0.493
  2  0.001  0.003  0.003  0.008  0.126  0.226  0.000  0.126  0.000  0.493
tot  0.002  0.005  0.005  0.017  0.253  0.452  0.000  0.253  0.000  0.987
 
band   6 # energy    5.26057034 # occ. -0.00012517
 
ion      s     py     pz     px    dxy    dyz    dz2    dxz    dx2    tot
  1  0.004  0.008  0.008  0.003  0.130  0.164  0.009  0.130  0.026  0.480
  2  0.004  0.008  0.008  0.003  0.130  0.164  0.009  0.130  0.026  0.480
tot  0.007  0.016  0.016  0.006  0.260  0.328  0.017  0.260  0.051  0.961
 
band   7 # energy    6.24913886 # occ.  0.00000000
 
ion      s     py     pz     px    dxy    dyz    dz2    dxz    dx2    tot
  1  0.000  0.001  0.001  0.000  0.071  0.000  0.255  0.071  0.085  0.483
  2  0.000  0.001  0.001  0.000  0.071  0.000  0.255  0.071  0.085  0.483
tot  0.000  0.001  0.001  0.000  0.141  0.000  0.511  0.141  0.170  0.966
 
band   8 # energy    6.28655675 # occ.  0.00000000
 
ion      s     py     pz     px    dxy    dyz    dz2    dxz    dx2    tot
  1  0.000  0.008  0.008  0.000  0.196  0.000  0.057  0.196  0.019  0.484
  2  0.000  0.008  0.008  0.000  0.196  0.000  0.057  0.196  0.019  0.484
tot  0.000  0.017  0.017  0.000  0.391  0.000  0.114  0.391  0.038  0.968
 
band   9 # energy    6.89517424 # occ.  0.00000000
 
ion      s     py     pz     px    dxy    dyz    dz2    dxz    dx2    tot
  1  0.001  0.005  0.005  0.004  0.106  0.269  0.001  0.106  0.003  0.499
  2  0.001  0.005  0.005  0.004  0.106  0.269  0.001  0.106  0.003  0.499
tot  0.002  0.009  0.009  0.008  0.211  0.538  0.002  0.211  0.007  0.998
 
band  10 # energy    7.40409695 # occ.  0.00000000
 
ion      s     py     pz     px    dxy    dyz    dz2    dxz    dx2    tot
  1  0.006  0.000  0.000  0.003  0.058  0.310  0.015  0.058  0.045  0.496
  2  0.006  0.000  0.000  0.003  0.058  0.310  0.015  0.058  0.045  0.496
tot  0.012  0.000  0.000  0.007  0.116  0.620  0.030  0.116  0.090  0.992
 
band  11 # energy    7.46416610 # occ.  0.00000000
 
ion      s     py     pz     px    dxy    dyz    dz2    dxz    dx2    tot
  1  0.010  0.001  0.001  0.004  0.000  0.003  0.120  0.000  0.360  0.499
  2  0.010  0.001  0.001  0.004  0.000  0.003  0.120  0.000  0.360  0.499
tot  0.021  0.001  0.001  0.008  0.000  0.007  0.240  0.000  0.720  0.998
 
band  12 # energy    9.52279322 # occ.  0.00000000
 
ion      s     py     pz     px    dxy    dyz    dz2    dxz    dx2    tot
  1  0.063  0.009  0.009  0.089  0.023  0.020  0.053  0.023  0.158  0.447
  2  0.063  0.009  0.009  0.089  0.023  0.020  0.053  0.023  0.158  0.447
tot  0.126  0.017  0.017  0.179  0.046  0.040  0.105  0.046  0.316  0.894
 

 k-point    3 :    0.37500000 0.37500000 0.12500000     weight = 0.37500000

band   1 # energy    1.80236570 # occ.  1.00000000
 
ion      s     py     pz     px    dxy    dyz    dz2    dxz    dx2    tot
  1  0.140  0.028  0.009  0.028  0.139  0.002  0.048  0.002  0.000  0.395
  2  0.140  0.028  0.009  0.028  0.139  0.002  0.048  0.002  0.000  0.395
tot  0.279  0.056  0.019  0.056  0.277  0.004  0.095  0.004  0.000  0.789
 
band   2 # energy    2.68649974 # occ.  1.00000000
 
ion      s     py     pz     px    dxy    dyz    dz2    dxz    dx2    tot
  1  0.058  0.006  0.008  0.006  0.216  0.002  0.135  0.002  0.000  0.433
  2  0.058  0.006  0.008  0.006  0.216  0.002  0.135  0.002  0.000  0.433
tot  0.116  0.011  0.017  0.011  0.433  0.004  0.271  0.004  0.000  0.866
 
band   3 # energy    4.17686636 # occ.  1.00000000
 
ion      s     py     pz     px    dxy    dyz    dz2    dxz    dx2    tot
  1  0.000  0.002  0.000  0.002  0.000  0.242  0.000  0.242  0.004  0.492
  2  0.000  0.002  0.000  0.002  0.000  0.242  0.000  0.242  0.004  0.492
tot  0.000  0.005  0.000  0.005  0.000  0.484  0.000  0.484  0.007  0.984
 
band   4 # energy    4.35871264 # occ.  1.00000000
 
ion      s     py     pz     px    dxy    dyz    dz2    dxz    dx2    tot
  1  0.002  0.002  0.007  0.002  0.002  0.227  0.018  0.227  0.000  0.488
  2  0.002  0.002  0.007  0.002  0.002  0.227  0.018  0.227  0.000  0.488
tot  0.003  0.004  0.014  0.004  0.004  0.455  0.037  0.455  0.000  0.976
 
band   5 # energy    4.69829026 # occ.  1.00050966
 
ion      s     py     pz     px    dxy    dyz    dz2    dxz    dx2    tot
  1  0.000  0.074  0.000  0.074  0.000  0.027  0.000  0.027  0.203  0.405
  2  0.000  0.074  0.000  0.074  0.000  0.027  0.000  0.027  0.203  0.405
tot  0.000  0.148  0.000  0.148  0.000  0.054  0.000  0.054  0.406  0.809
 
band   6 # energy    4.78084317 # occ.  1.01257761
 
ion      s     py     pz     px    dxy    dyz    dz2    dxz    dx2    tot
  1  0.015  0.061  0.001  0.061  0.135  0.042  0.060  0.042  0.000  0.418
  2  0.015  0.061  0.001  0.061  0.135  0.042  0.060  0.042  0.000  0.418
tot  0.031  0.122  0.002  0.122  0.270  0.084  0.121  0.084  0.000  0.837
 
band   7 # energy    6.73194237 # occ.  0.00000000
 
ion      s     py     pz     px    dxy    dyz    dz2    dxz    dx2    tot
  1  0.006  0.001  0.001  0.001  0.168  0.011  0.296  0.011  0.000  0.494
  2  0.006  0.001  0.001  0.001  0.168  0.011  0.296  0.011  0.000  0.494
tot  0.013  0.001  0.001  0.001  0.336  0.021  0.592  0.021  0.000  0.988
 
band   8 # energy    6.91595074 # occ.  0.00000000
 
ion      s     py     pz     px    dxy    dyz    dz2    dxz    dx2    tot
  1  0.002  0.000  0.000  0.000  0.117  0.007  0.365  0.007  0.000  0.498
  2  0.002  0.000  0.000  0.000  0.117  0.007  0.365  0.007  0.000  0.498
tot  0.005  0.000  0.001  0.000  0.233  0.013  0.730  0.013  0.000  0.995
 
band   9 # energy    7.24702452 # occ.  0.00000000
 
ion      s     py     pz     px    dxy    dyz    dz2    dxz    dx2    tot
  1  0.000  0.000  0.000  0.000  0.000  0.002  0.000  0.002  0.497  0.502
  2  0.000  0.000  0.000  0.000  0.000  0.002  0.000  0.002  0.497  0.502
tot  0.000  0.000  0.000  0.000  0.000  0.005  0.000  0.005  0.995  1.004
 
band  10 # energy    7.60089107 # occ.  0.00000000
 
ion      s     py     pz     px    dxy    dyz    dz2    dxz    dx2    tot
  1  0.000  0.008  0.000  0.008  0.000  0.151  0.000  0.151  0.180  0.497
  2  0.000  0.008  0.000  0.008  0.000  0.151  0.000  0.151  0.180  0.497
tot  0.000  0.015  0.000  0.015  0.000  0.302  0.000  0.302  0.360  0.994
 
band  11 # energy    8.09798473 # occ.  0.00000000
 
ion      s     py     pz     px    dxy    dyz    dz2    dxz    dx2    tot
  1  0.007  0.014  0.005  0.014  0.049  0.197  0.000  0.197  0.000  0.483
  2  0.007  0.014  0.005  0.014  0.049  0.197  0.000  0.197  0.000  0.483
tot  0.014  0.027  0.010  0.027  0.097  0.395  0.000  0.395  0.000  0.966
 
band  12 # energy    9.86599601 # occ.  0.00000000
 
ion      s     py     pz     px    dxy    dyz    dz2    dxz    dx2    tot